V -t * -v 1.0a5 -a 0
A -t * -n 1 -p 0 -o 0x7fffffff -c 30 -a 1
A -t * -h 1 -m 1073741823 -s 0
n -t * -a 4 -s 4 -S UP -v circle -c black -i black
n -t * -a 0 -s 0 -S UP -v circle -c black -i black
n -t * -a 1 -s 1 -S UP -v circle -c black -i black
n -t * -a 2 -s 2 -S UP -v circle -c black -i black
n -t * -a 3 -s 3 -S UP -v circle -c black -i black
l -t * -s 2 -d 0 -S UP -r 12000000 -D 0.10000000000000001 -c black
l -t * -s 3 -d 0 -S UP -r 12000000 -D 0.10000000000000001 -c black
l -t * -s 4 -d 0 -S UP -r 12000000 -D 0.10000000000000001 -c black
l -t * -s 0 -d 1 -S UP -r 6000000 -D 0.20000000000000001 -c black
+ -t 0.1 -s 2 -d 0 -p cbr -e 210 -c 0 -i 0 -a 0 -x {2.0 1.0 0 ------- null}
- -t 0.1 -s 2 -d 0 -p cbr -e 210 -c 0 -i 0 -a 0 -x {2.0 1.0 0 ------- null}
h -t 0.1 -s 2 -d 0 -p cbr -e 210 -c 0 -i 0 -a 0 -x {2.0 1.0 -1 ------- null}
+ -t 0.1 -s 3 -d 0 -p cbr -e 210 -c 0 -i 1 -a 0 -x {3.0 1.0 0 ------- null}
- -t 0.1 -s 3 -d 0 -p cbr -e 210 -c 0 -i 1 -a 0 -x {3.0 1.0 0 ------- null}
h -t 0.1 -s 3 -d 0 -p cbr -e 210 -c 0 -i 1 -a 0 -x {3.0 1.0 -1 ------- null}
+ -t 0.15 -s 3 -d 0 -p cbr -e 210 -c 0 -i 2 -a 0 -x {3.0 1.0 1 ------- null}
- -t 0.15 -s 3 -d 0 -p cbr -e 210 -c 0 -i 2 -a 0 -x {3.0 1.0 1 ------- null}
h -t 0.15 -s 3 -d 0 -p cbr -e 210 -c 0 -i 2 -a 0 -x {3.0 1.0 -1 ------- null}
+ -t 0.18 -s 2 -d 0 -p cbr -e 210 -c 0 -i 3 -a 0 -x {2.0 1.0 1 ------- null}
- -t 0.18 -s 2 -d 0 -p cbr -e 210 -c 0 -i 3 -a 0 -x {2.0 1.0 1 ------- null}
h -t 0.18 -s 2 -d 0 -p cbr -e 210 -c 0 -i 3 -a 0 -x {2.0 1.0 -1 ------- null}
+ -t 0.2 -s 3 -d 0 -p cbr -e 210 -c 0 -i 4 -a 0 -x {3.0 1.0 2 ------- null}
- -t 0.2 -s 3 -d 0 -p cbr -e 210 -c 0 -i 4 -a 0 -x {3.0 1.0 2 ------- null}
h -t 0.2 -s 3 -d 0 -p cbr -e 210 -c 0 -i 4 -a 0 -x {3.0 1.0 -1 ------- null}
r -t 0.20014 -s 2 -d 0 -p cbr -e 210 -c 0 -i 0 -a 0 -x {2.0 1.0 0 ------- null}
+ -t 0.20014 -s 0 -d 1 -p cbr -e 210 -c 0 -i 0 -a 0 -x {2.0 1.0 0 ------- null}
- -t 0.20014 -s 0 -d 1 -p cbr -e 210 -c 0 -i 0 -a 0 -x {2.0 1.0 0 ------- null}
h -t 0.20014 -s 0 -d 1 -p cbr -e 210 -c 0 -i 0 -a 0 -x {2.0 1.0 -1 ------- null}
r -t 0.20014 -s 3 -d 0 -p cbr -e 210 -c 0 -i 1 -a 0 -x {3.0 1.0 0 ------- null}
+ -t 0.20014 -s 0 -d 1 -p cbr -e 210 -c 0 -i 1 -a 0 -x {3.0 1.0 0 ------- null}
- -t 0.20042 -s 0 -d 1 -p cbr -e 210 -c 0 -i 1 -a 0 -x {3.0 1.0 0 ------- null}
h -t 0.20042 -s 0 -d 1 -p cbr -e 210 -c 0 -i 1 -a 0 -x {3.0 1.0 -1 ------- null}
+ -t 0.25 -s 3 -d 0 -p cbr -e 210 -c 0 -i 5 -a 0 -x {3.0 1.0 3 ------- null}
- -t 0.25 -s 3 -d 0 -p cbr -e 210 -c 0 -i 5 -a 0 -x {3.0 1.0 3 ------- null}
h -t 0.25 -s 3 -d 0 -p cbr -e 210 -c 0 -i 5 -a 0 -x {3.0 1.0 -1 ------- null}
r -t 0.25014 -s 3 -d 0 -p cbr -e 210 -c 0 -i 2 -a 0 -x {3.0 1.0 1 ------- null}
+ -t 0.25014 -s 0 -d 1 -p cbr -e 210 -c 0 -i 2 -a 0 -x {3.0 1.0 1 ------- null}
- -t 0.25014 -s 0 -d 1 -p cbr -e 210 -c 0 -i 2 -a 0 -x {3.0 1.0 1 ------- null}
h -t 0.25014 -s 0 -d 1 -p cbr -e 210 -c 0 -i 2 -a 0 -x {3.0 1.0 -1 ------- null}
+ -t 0.26 -s 2 -d 0 -p cbr -e 210 -c 0 -i 6 -a 0 -x {2.0 1.0 2 ------- null}
- -t 0.26 -s 2 -d 0 -p cbr -e 210 -c 0 -i 6 -a 0 -x {2.0 1.0 2 ------- null}
h -t 0.26 -s 2 -d 0 -p cbr -e 210 -c 0 -i 6 -a 0 -x {2.0 1.0 -1 ------- null}
r -t 0.28014 -s 2 -d 0 -p cbr -e 210 -c 0 -i 3 -a 0 -x {2.0 1.0 1 ------- null}
+ -t 0.28014 -s 0 -d 1 -p cbr -e 210 -c 0 -i 3 -a 0 -x {2.0 1.0 1 ------- null}
- -t 0.28014 -s 0 -d 1 -p cbr -e 210 -c 0 -i 3 -a 0 -x {2.0 1.0 1 ------- null}
h -t 0.28014 -s 0 -d 1 -p cbr -e 210 -c 0 -i 3 -a 0 -x {2.0 1.0 -1 ------- null}
+ -t 0.3 -s 3 -d 0 -p cbr -e 210 -c 0 -i 7 -a 0 -x {3.0 1.0 4 ------- null}
- -t 0.3 -s 3 -d 0 -p cbr -e 210 -c 0 -i 7 -a 0 -x {3.0 1.0 4 ------- null}
h -t 0.3 -s 3 -d 0 -p cbr -e 210 -c 0 -i 7 -a 0 -x {3.0 1.0 -1 ------- null}
r -t 0.30014 -s 3 -d 0 -p cbr -e 210 -c 0 -i 4 -a 0 -x {3.0 1.0 2 ------- null}
+ -t 0.30014 -s 0 -d 1 -p cbr -e 210 -c 0 -i 4 -a 0 -x {3.0 1.0 2 ------- null}
- -t 0.30014 -s 0 -d 1 -p cbr -e 210 -c 0 -i 4 -a 0 -x {3.0 1.0 2 ------- null}
h -t 0.30014 -s 0 -d 1 -p cbr -e 210 -c 0 -i 4 -a 0 -x {3.0 1.0 -1 ------- null}
+ -t 0.34 -s 2 -d 0 -p cbr -e 210 -c 0 -i 8 -a 0 -x {2.0 1.0 3 ------- null}
- -t 0.34 -s 2 -d 0 -p cbr -e 210 -c 0 -i 8 -a 0 -x {2.0 1.0 3 ------- null}
h -t 0.34 -s 2 -d 0 -p cbr -e 210 -c 0 -i 8 -a 0 -x {2.0 1.0 -1 ------- null}
+ -t 0.35 -s 3 -d 0 -p cbr -e 210 -c 0 -i 9 -a 0 -x {3.0 1.0 5 ------- null}
- -t 0.35 -s 3 -d 0 -p cbr -e 210 -c 0 -i 9 -a 0 -x {3.0 1.0 5 ------- null}
h -t 0.35 -s 3 -d 0 -p cbr -e 210 -c 0 -i 9 -a 0 -x {3.0 1.0 -1 ------- null}
r -t 0.35014 -s 3 -d 0 -p cbr -e 210 -c 0 -i 5 -a 0 -x {3.0 1.0 3 ------- null}
+ -t 0.35014 -s 0 -d 1 -p cbr -e 210 -c 0 -i 5 -a 0 -x {3.0 1.0 3 ------- null}
- -t 0.35014 -s 0 -d 1 -p cbr -e 210 -c 0 -i 5 -a 0 -x {3.0 1.0 3 ------- null}
h -t 0.35014 -s 0 -d 1 -p cbr -e 210 -c 0 -i 5 -a 0 -x {3.0 1.0 -1 ------- null}
r -t 0.36014 -s 2 -d 0 -p cbr -e 210 -c 0 -i 6 -a 0 -x {2.0 1.0 2 ------- null}
+ -t 0.36014 -s 0 -d 1 -p cbr -e 210 -c 0 -i 6 -a 0 -x {2.0 1.0 2 ------- null}
- -t 0.36014 -s 0 -d 1 -p cbr -e 210 -c 0 -i 6 -a 0 -x {2.0 1.0 2 ------- null}
h -t 0.36014 -s 0 -d 1 -p cbr -e 210 -c 0 -i 6 -a 0 -x {2.0 1.0 -1 ------- null}
+ -t 0.4 -s 3 -d 0 -p cbr -e 210 -c 0 -i 10 -a 0 -x {3.0 1.0 6 ------- null}
- -t 0.4 -s 3 -d 0 -p cbr -e 210 -c 0 -i 10 -a 0 -x {3.0 1.0 6 ------- null}
h -t 0.4 -s 3 -d 0 -p cbr -e 210 -c 0 -i 10 -a 0 -x {3.0 1.0 -1 ------- null}
r -t 0.40014 -s 3 -d 0 -p cbr -e 210 -c 0 -i 7 -a 0 -x {3.0 1.0 4 ------- null}
+ -t 0.40014 -s 0 -d 1 -p cbr -e 210 -c 0 -i 7 -a 0 -x {3.0 1.0 4 ------- null}
- -t 0.40014 -s 0 -d 1 -p cbr -e 210 -c 0 -i 7 -a 0 -x {3.0 1.0 4 ------- null}
h -t 0.40014 -s 0 -d 1 -p cbr -e 210 -c 0 -i 7 -a 0 -x {3.0 1.0 -1 ------- null}
r -t 0.40042 -s 0 -d 1 -p cbr -e 210 -c 0 -i 0 -a 0 -x {2.0 1.0 0 ------- null}
r -t 0.4007 -s 0 -d 1 -p cbr -e 210 -c 0 -i 1 -a 0 -x {3.0 1.0 0 ------- null}
+ -t 0.42 -s 2 -d 0 -p cbr -e 210 -c 0 -i 11 -a 0 -x {2.0 1.0 4 ------- null}
- -t 0.42 -s 2 -d 0 -p cbr -e 210 -c 0 -i 11 -a 0 -x {2.0 1.0 4 ------- null}
h -t 0.42 -s 2 -d 0 -p cbr -e 210 -c 0 -i 11 -a 0 -x {2.0 1.0 -1 ------- null}
r -t 0.44014 -s 2 -d 0 -p cbr -e 210 -c 0 -i 8 -a 0 -x {2.0 1.0 3 ------- null}
+ -t 0.44014 -s 0 -d 1 -p cbr -e 210 -c 0 -i 8 -a 0 -x {2.0 1.0 3 ------- null}
- -t 0.44014 -s 0 -d 1 -p cbr -e 210 -c 0 -i 8 -a 0 -x {2.0 1.0 3 ------- null}
h -t 0.44014 -s 0 -d 1 -p cbr -e 210 -c 0 -i 8 -a 0 -x {2.0 1.0 -1 ------- null}
+ -t 0.45 -s 3 -d 0 -p cbr -e 210 -c 0 -i 12 -a 0 -x {3.0 1.0 7 ------- null}
- -t 0.45 -s 3 -d 0 -p cbr -e 210 -c 0 -i 12 -a 0 -x {3.0 1.0 7 ------- null}
h -t 0.45 -s 3 -d 0 -p cbr -e 210 -c 0 -i 12 -a 0 -x {3.0 1.0 -1 ------- null}
r -t 0.45014 -s 3 -d 0 -p cbr -e 210 -c 0 -i 9 -a 0 -x {3.0 1.0 5 ------- null}
+ -t 0.45014 -s 0 -d 1 -p cbr -e 210 -c 0 -i 9 -a 0 -x {3.0 1.0 5 ------- null}
- -t 0.45014 -s 0 -d 1 -p cbr -e 210 -c 0 -i 9 -a 0 -x {3.0 1.0 5 ------- null}
h -t 0.45014 -s 0 -d 1 -p cbr -e 210 -c 0 -i 9 -a 0 -x {3.0 1.0 -1 ------- null}
r -t 0.45042 -s 0 -d 1 -p cbr -e 210 -c 0 -i 2 -a 0 -x {3.0 1.0 1 ------- null}
r -t 0.48042 -s 0 -d 1 -p cbr -e 210 -c 0 -i 3 -a 0 -x {2.0 1.0 1 ------- null}
+ -t 0.5 -s 3 -d 0 -p cbr -e 210 -c 0 -i 13 -a 0 -x {3.0 1.0 8 ------- null}
- -t 0.5 -s 3 -d 0 -p cbr -e 210 -c 0 -i 13 -a 0 -x {3.0 1.0 8 ------- null}
h -t 0.5 -s 3 -d 0 -p cbr -e 210 -c 0 -i 13 -a 0 -x {3.0 1.0 -1 ------- null}
+ -t 0.5 -s 4 -d 0 -p cbr -e 210 -c 0 -i 14 -a 0 -x {4.0 1.0 0 ------- null}
- -t 0.5 -s 4 -d 0 -p cbr -e 210 -c 0 -i 14 -a 0 -x {4.0 1.0 0 ------- null}
h -t 0.5 -s 4 -d 0 -p cbr -e 210 -c 0 -i 14 -a 0 -x {4.0 1.0 -1 ------- null}
+ -t 0.5 -s 2 -d 0 -p cbr -e 210 -c 0 -i 15 -a 0 -x {2.0 1.0 5 ------- null}
- -t 0.5 -s 2 -d 0 -p cbr -e 210 -c 0 -i 15 -a 0 -x {2.0 1.0 5 ------- null}
h -t 0.5 -s 2 -d 0 -p cbr -e 210 -c 0 -i 15 -a 0 -x {2.0 1.0 -1 ------- null}
r -t 0.50014 -s 3 -d 0 -p cbr -e 210 -c 0 -i 10 -a 0 -x {3.0 1.0 6 ------- null}
+ -t 0.50014 -s 0 -d 1 -p cbr -e 210 -c 0 -i 10 -a 0 -x {3.0 1.0 6 ------- null}
- -t 0.50014 -s 0 -d 1 -p cbr -e 210 -c 0 -i 10 -a 0 -x {3.0 1.0 6 ------- null}
h -t 0.50014 -s 0 -d 1 -p cbr -e 210 -c 0 -i 10 -a 0 -x {3.0 1.0 -1 ------- null}
r -t 0.50042 -s 0 -d 1 -p cbr -e 210 -c 0 -i 4 -a 0 -x {3.0 1.0 2 ------- null}
+ -t 0.52 -s 4 -d 0 -p cbr -e 210 -c 0 -i 16 -a 0 -x {4.0 1.0 1 ------- null}
- -t 0.52 -s 4 -d 0 -p cbr -e 210 -c 0 -i 16 -a 0 -x {4.0 1.0 1 ------- null}
h -t 0.52 -s 4 -d 0 -p cbr -e 210 -c 0 -i 16 -a 0 -x {4.0 1.0 -1 ------- null}
r -t 0.52014 -s 2 -d 0 -p cbr -e 210 -c 0 -i 11 -a 0 -x {2.0 1.0 4 ------- null}
+ -t 0.52014 -s 0 -d 1 -p cbr -e 210 -c 0 -i 11 -a 0 -x {2.0 1.0 4 ------- null}
- -t 0.52014 -s 0 -d 1 -p cbr -e 210 -c 0 -i 11 -a 0 -x {2.0 1.0 4 ------- null}
h -t 0.52014 -s 0 -d 1 -p cbr -e 210 -c 0 -i 11 -a 0 -x {2.0 1.0 -1 ------- null}
+ -t 0.54 -s 4 -d 0 -p cbr -e 210 -c 0 -i 17 -a 0 -x {4.0 1.0 2 ------- null}
- -t 0.54 -s 4 -d 0 -p cbr -e 210 -c 0 -i 17 -a 0 -x {4.0 1.0 2 ------- null}
h -t 0.54 -s 4 -d 0 -p cbr -e 210 -c 0 -i 17 -a 0 -x {4.0 1.0 -1 ------- null}
+ -t 0.55 -s 3 -d 0 -p cbr -e 210 -c 0 -i 18 -a 0 -x {3.0 1.0 9 ------- null}
- -t 0.55 -s 3 -d 0 -p cbr -e 210 -c 0 -i 18 -a 0 -x {3.0 1.0 9 ------- null}
h -t 0.55 -s 3 -d 0 -p cbr -e 210 -c 0 -i 18 -a 0 -x {3.0 1.0 -1 ------- null}
r -t 0.55014 -s 3 -d 0 -p cbr -e 210 -c 0 -i 12 -a 0 -x {3.0 1.0 7 ------- null}
+ -t 0.55014 -s 0 -d 1 -p cbr -e 210 -c 0 -i 12 -a 0 -x {3.0 1.0 7 ------- null}
- -t 0.55014 -s 0 -d 1 -p cbr -e 210 -c 0 -i 12 -a 0 -x {3.0 1.0 7 ------- null}
h -t 0.55014 -s 0 -d 1 -p cbr -e 210 -c 0 -i 12 -a 0 -x {3.0 1.0 -1 ------- null}
r -t 0.55042 -s 0 -d 1 -p cbr -e 210 -c 0 -i 5 -a 0 -x {3.0 1.0 3 ------- null}
+ -t 0.56 -s 4 -d 0 -p cbr -e 210 -c 0 -i 19 -a 0 -x {4.0 1.0 3 ------- null}
- -t 0.56 -s 4 -d 0 -p cbr -e 210 -c 0 -i 19 -a 0 -x {4.0 1.0 3 ------- null}
h -t 0.56 -s 4 -d 0 -p cbr -e 210 -c 0 -i 19 -a 0 -x {4.0 1.0 -1 ------- null}
r -t 0.56042 -s 0 -d 1 -p cbr -e 210 -c 0 -i 6 -a 0 -x {2.0 1.0 2 ------- null}
+ -t 0.58 -s 2 -d 0 -p cbr -e 210 -c 0 -i 20 -a 0 -x {2.0 1.0 6 ------- null}
- -t 0.58 -s 2 -d 0 -p cbr -e 210 -c 0 -i 20 -a 0 -x {2.0 1.0 6 ------- null}
h -t 0.58 -s 2 -d 0 -p cbr -e 210 -c 0 -i 20 -a 0 -x {2.0 1.0 -1 ------- null}
+ -t 0.58 -s 4 -d 0 -p cbr -e 210 -c 0 -i 21 -a 0 -x {4.0 1.0 4 ------- null}
- -t 0.58 -s 4 -d 0 -p cbr -e 210 -c 0 -i 21 -a 0 -x {4.0 1.0 4 ------- null}
h -t 0.58 -s 4 -d 0 -p cbr -e 210 -c 0 -i 21 -a 0 -x {4.0 1.0 -1 ------- null}
+ -t 0.6 -s 3 -d 0 -p cbr -e 210 -c 0 -i 22 -a 0 -x {3.0 1.0 10 ------- null}
- -t 0.6 -s 3 -d 0 -p cbr -e 210 -c 0 -i 22 -a 0 -x {3.0 1.0 10 ------- null}
h -t 0.6 -s 3 -d 0 -p cbr -e 210 -c 0 -i 22 -a 0 -x {3.0 1.0 -1 ------- null}
+ -t 0.6 -s 4 -d 0 -p cbr -e 210 -c 0 -i 23 -a 0 -x {4.0 1.0 5 ------- null}
- -t 0.6 -s 4 -d 0 -p cbr -e 210 -c 0 -i 23 -a 0 -x {4.0 1.0 5 ------- null}
h -t 0.6 -s 4 -d 0 -p cbr -e 210 -c 0 -i 23 -a 0 -x {4.0 1.0 -1 ------- null}
r -t 0.60014 -s 3 -d 0 -p cbr -e 210 -c 0 -i 13 -a 0 -x {3.0 1.0 8 ------- null}
+ -t 0.60014 -s 0 -d 1 -p cbr -e 210 -c 0 -i 13 -a 0 -x {3.0 1.0 8 ------- null}
- -t 0.60014 -s 0 -d 1 -p cbr -e 210 -c 0 -i 13 -a 0 -x {3.0 1.0 8 ------- null}
h -t 0.60014 -s 0 -d 1 -p cbr -e 210 -c 0 -i 13 -a 0 -x {3.0 1.0 -1 ------- null}
r -t 0.60014 -s 4 -d 0 -p cbr -e 210 -c 0 -i 14 -a 0 -x {4.0 1.0 0 ------- null}
+ -t 0.60014 -s 0 -d 1 -p cbr -e 210 -c 0 -i 14 -a 0 -x {4.0 1.0 0 ------- null}
r -t 0.60014 -s 2 -d 0 -p cbr -e 210 -c 0 -i 15 -a 0 -x {2.0 1.0 5 ------- null}
+ -t 0.60014 -s 0 -d 1 -p cbr -e 210 -c 0 -i 15 -a 0 -x {2.0 1.0 5 ------- null}
- -t 0.60042 -s 0 -d 1 -p cbr -e 210 -c 0 -i 14 -a 0 -x {4.0 1.0 0 ------- null}
h -t 0.60042 -s 0 -d 1 -p cbr -e 210 -c 0 -i 14 -a 0 -x {4.0 1.0 -1 ------- null}
r -t 0.60042 -s 0 -d 1 -p cbr -e 210 -c 0 -i 7 -a 0 -x {3.0 1.0 4 ------- null}
- -t 0.6007 -s 0 -d 1 -p cbr -e 210 -c 0 -i 15 -a 0 -x {2.0 1.0 5 ------- null}
h -t 0.6007 -s 0 -d 1 -p cbr -e 210 -c 0 -i 15 -a 0 -x {2.0 1.0 -1 ------- null}
+ -t 0.62 -s 4 -d 0 -p cbr -e 210 -c 0 -i 24 -a 0 -x {4.0 1.0 6 ------- null}
- -t 0.62 -s 4 -d 0 -p cbr -e 210 -c 0 -i 24 -a 0 -x {4.0 1.0 6 ------- null}
h -t 0.62 -s 4 -d 0 -p cbr -e 210 -c 0 -i 24 -a 0 -x {4.0 1.0 -1 ------- null}
r -t 0.62014 -s 4 -d 0 -p cbr -e 210 -c 0 -i 16 -a 0 -x {4.0 1.0 1 ------- null}
+ -t 0.62014 -s 0 -d 1 -p cbr -e 210 -c 0 -i 16 -a 0 -x {4.0 1.0 1 ------- null}
- -t 0.62014 -s 0 -d 1 -p cbr -e 210 -c 0 -i 16 -a 0 -x {4.0 1.0 1 ------- null}
h -t 0.62014 -s 0 -d 1 -p cbr -e 210 -c 0 -i 16 -a 0 -x {4.0 1.0 -1 ------- null}
+ -t 0.64 -s 4 -d 0 -p cbr -e 210 -c 0 -i 25 -a 0 -x {4.0 1.0 7 ------- null}
- -t 0.64 -s 4 -d 0 -p cbr -e 210 -c 0 -i 25 -a 0 -x {4.0 1.0 7 ------- null}
h -t 0.64 -s 4 -d 0 -p cbr -e 210 -c 0 -i 25 -a 0 -x {4.0 1.0 -1 ------- null}
r -t 0.64014 -s 4 -d 0 -p cbr -e 210 -c 0 -i 17 -a 0 -x {4.0 1.0 2 ------- null}
+ -t 0.64014 -s 0 -d 1 -p cbr -e 210 -c 0 -i 17 -a 0 -x {4.0 1.0 2 ------- null}
- -t 0.64014 -s 0 -d 1 -p cbr -e 210 -c 0 -i 17 -a 0 -x {4.0 1.0 2 ------- null}
h -t 0.64014 -s 0 -d 1 -p cbr -e 210 -c 0 -i 17 -a 0 -x {4.0 1.0 -1 ------- null}
r -t 0.64042 -s 0 -d 1 -p cbr -e 210 -c 0 -i 8 -a 0 -x {2.0 1.0 3 ------- null}
+ -t 0.65 -s 3 -d 0 -p cbr -e 210 -c 0 -i 26 -a 0 -x {3.0 1.0 11 ------- null}
- -t 0.65 -s 3 -d 0 -p cbr -e 210 -c 0 -i 26 -a 0 -x {3.0 1.0 11 ------- null}
h -t 0.65 -s 3 -d 0 -p cbr -e 210 -c 0 -i 26 -a 0 -x {3.0 1.0 -1 ------- null}
r -t 0.65014 -s 3 -d 0 -p cbr -e 210 -c 0 -i 18 -a 0 -x {3.0 1.0 9 ------- null}
+ -t 0.65014 -s 0 -d 1 -p cbr -e 210 -c 0 -i 18 -a 0 -x {3.0 1.0 9 ------- null}
- -t 0.65014 -s 0 -d 1 -p cbr -e 210 -c 0 -i 18 -a 0 -x {3.0 1.0 9 ------- null}
h -t 0.65014 -s 0 -d 1 -p cbr -e 210 -c 0 -i 18 -a 0 -x {3.0 1.0 -1 ------- null}
r -t 0.65042 -s 0 -d 1 -p cbr -e 210 -c 0 -i 9 -a 0 -x {3.0 1.0 5 ------- null}
+ -t 0.66 -s 2 -d 0 -p cbr -e 210 -c 0 -i 27 -a 0 -x {2.0 1.0 7 ------- null}
- -t 0.66 -s 2 -d 0 -p cbr -e 210 -c 0 -i 27 -a 0 -x {2.0 1.0 7 ------- null}
h -t 0.66 -s 2 -d 0 -p cbr -e 210 -c 0 -i 27 -a 0 -x {2.0 1.0 -1 ------- null}
+ -t 0.66 -s 4 -d 0 -p cbr -e 210 -c 0 -i 28 -a 0 -x {4.0 1.0 8 ------- null}
- -t 0.66 -s 4 -d 0 -p cbr -e 210 -c 0 -i 28 -a 0 -x {4.0 1.0 8 ------- null}
h -t 0.66 -s 4 -d 0 -p cbr -e 210 -c 0 -i 28 -a 0 -x {4.0 1.0 -1 ------- null}
r -t 0.66014 -s 4 -d 0 -p cbr -e 210 -c 0 -i 19 -a 0 -x {4.0 1.0 3 ------- null}
+ -t 0.66014 -s 0 -d 1 -p cbr -e 210 -c 0 -i 19 -a 0 -x {4.0 1.0 3 ------- null}
- -t 0.66014 -s 0 -d 1 -p cbr -e 210 -c 0 -i 19 -a 0 -x {4.0 1.0 3 ------- null}
h -t 0.66014 -s 0 -d 1 -p cbr -e 210 -c 0 -i 19 -a 0 -x {4.0 1.0 -1 ------- null}
+ -t 0.68 -s 4 -d 0 -p cbr -e 210 -c 0 -i 29 -a 0 -x {4.0 1.0 9 ------- null}
- -t 0.68 -s 4 -d 0 -p cbr -e 210 -c 0 -i 29 -a 0 -x {4.0 1.0 9 ------- null}
h -t 0.68 -s 4 -d 0 -p cbr -e 210 -c 0 -i 29 -a 0 -x {4.0 1.0 -1 ------- null}
r -t 0.68014 -s 2 -d 0 -p cbr -e 210 -c 0 -i 20 -a 0 -x {2.0 1.0 6 ------- null}
+ -t 0.68014 -s 0 -d 1 -p cbr -e 210 -c 0 -i 20 -a 0 -x {2.0 1.0 6 ------- null}
- -t 0.68014 -s 0 -d 1 -p cbr -e 210 -c 0 -i 20 -a 0 -x {2.0 1.0 6 ------- null}
h -t 0.68014 -s 0 -d 1 -p cbr -e 210 -c 0 -i 20 -a 0 -x {2.0 1.0 -1 ------- null}
r -t 0.68014 -s 4 -d 0 -p cbr -e 210 -c 0 -i 21 -a 0 -x {4.0 1.0 4 ------- null}
+ -t 0.68014 -s 0 -d 1 -p cbr -e 210 -c 0 -i 21 -a 0 -x {4.0 1.0 4 ------- null}
- -t 0.68042 -s 0 -d 1 -p cbr -e 210 -c 0 -i 21 -a 0 -x {4.0 1.0 4 ------- null}
h -t 0.68042 -s 0 -d 1 -p cbr -e 210 -c 0 -i 21 -a 0 -x {4.0 1.0 -1 ------- null}
+ -t 0.7 -s 3 -d 0 -p cbr -e 210 -c 0 -i 30 -a 0 -x {3.0 1.0 12 ------- null}
- -t 0.7 -s 3 -d 0 -p cbr -e 210 -c 0 -i 30 -a 0 -x {3.0 1.0 12 ------- null}
h -t 0.7 -s 3 -d 0 -p cbr -e 210 -c 0 -i 30 -a 0 -x {3.0 1.0 -1 ------- null}
+ -t 0.7 -s 4 -d 0 -p cbr -e 210 -c 0 -i 31 -a 0 -x {4.0 1.0 10 ------- null}
- -t 0.7 -s 4 -d 0 -p cbr -e 210 -c 0 -i 31 -a 0 -x {4.0 1.0 10 ------- null}
h -t 0.7 -s 4 -d 0 -p cbr -e 210 -c 0 -i 31 -a 0 -x {4.0 1.0 -1 ------- null}
r -t 0.70014 -s 3 -d 0 -p cbr -e 210 -c 0 -i 22 -a 0 -x {3.0 1.0 10 ------- null}
+ -t 0.70014 -s 0 -d 1 -p cbr -e 210 -c 0 -i 22 -a 0 -x {3.0 1.0 10 ------- null}
- -t 0.70014 -s 0 -d 1 -p cbr -e 210 -c 0 -i 22 -a 0 -x {3.0 1.0 10 ------- null}
h -t 0.70014 -s 0 -d 1 -p cbr -e 210 -c 0 -i 22 -a 0 -x {3.0 1.0 -1 ------- null}
r -t 0.70014 -s 4 -d 0 -p cbr -e 210 -c 0 -i 23 -a 0 -x {4.0 1.0 5 ------- null}
+ -t 0.70014 -s 0 -d 1 -p cbr -e 210 -c 0 -i 23 -a 0 -x {4.0 1.0 5 ------- null}
- -t 0.70042 -s 0 -d 1 -p cbr -e 210 -c 0 -i 23 -a 0 -x {4.0 1.0 5 ------- null}
h -t 0.70042 -s 0 -d 1 -p cbr -e 210 -c 0 -i 23 -a 0 -x {4.0 1.0 -1 ------- null}
r -t 0.70042 -s 0 -d 1 -p cbr -e 210 -c 0 -i 10 -a 0 -x {3.0 1.0 6 ------- null}
+ -t 0.72 -s 4 -d 0 -p cbr -e 210 -c 0 -i 32 -a 0 -x {4.0 1.0 11 ------- null}
- -t 0.72 -s 4 -d 0 -p cbr -e 210 -c 0 -i 32 -a 0 -x {4.0 1.0 11 ------- null}
h -t 0.72 -s 4 -d 0 -p cbr -e 210 -c 0 -i 32 -a 0 -x {4.0 1.0 -1 ------- null}
r -t 0.72014 -s 4 -d 0 -p cbr -e 210 -c 0 -i 24 -a 0 -x {4.0 1.0 6 ------- null}
+ -t 0.72014 -s 0 -d 1 -p cbr -e 210 -c 0 -i 24 -a 0 -x {4.0 1.0 6 ------- null}
- -t 0.72014 -s 0 -d 1 -p cbr -e 210 -c 0 -i 24 -a 0 -x {4.0 1.0 6 ------- null}
h -t 0.72014 -s 0 -d 1 -p cbr -e 210 -c 0 -i 24 -a 0 -x {4.0 1.0 -1 ------- null}
r -t 0.72042 -s 0 -d 1 -p cbr -e 210 -c 0 -i 11 -a 0 -x {2.0 1.0 4 ------- null}
+ -t 0.74 -s 2 -d 0 -p cbr -e 210 -c 0 -i 33 -a 0 -x {2.0 1.0 8 ------- null}
- -t 0.74 -s 2 -d 0 -p cbr -e 210 -c 0 -i 33 -a 0 -x {2.0 1.0 8 ------- null}
h -t 0.74 -s 2 -d 0 -p cbr -e 210 -c 0 -i 33 -a 0 -x {2.0 1.0 -1 ------- null}
+ -t 0.74 -s 4 -d 0 -p cbr -e 210 -c 0 -i 34 -a 0 -x {4.0 1.0 12 ------- null}
- -t 0.74 -s 4 -d 0 -p cbr -e 210 -c 0 -i 34 -a 0 -x {4.0 1.0 12 ------- null}
h -t 0.74 -s 4 -d 0 -p cbr -e 210 -c 0 -i 34 -a 0 -x {4.0 1.0 -1 ------- null}
r -t 0.74014 -s 4 -d 0 -p cbr -e 210 -c 0 -i 25 -a 0 -x {4.0 1.0 7 ------- null}
+ -t 0.74014 -s 0 -d 1 -p cbr -e 210 -c 0 -i 25 -a 0 -x {4.0 1.0 7 ------- null}
- -t 0.74014 -s 0 -d 1 -p cbr -e 210 -c 0 -i 25 -a 0 -x {4.0 1.0 7 ------- null}
h -t 0.74014 -s 0 -d 1 -p cbr -e 210 -c 0 -i 25 -a 0 -x {4.0 1.0 -1 ------- null}
+ -t 0.75 -s 3 -d 0 -p cbr -e 210 -c 0 -i 35 -a 0 -x {3.0 1.0 13 ------- null}
- -t 0.75 -s 3 -d 0 -p cbr -e 210 -c 0 -i 35 -a 0 -x {3.0 1.0 13 ------- null}
h -t 0.75 -s 3 -d 0 -p cbr -e 210 -c 0 -i 35 -a 0 -x {3.0 1.0 -1 ------- null}
r -t 0.75014 -s 3 -d 0 -p cbr -e 210 -c 0 -i 26 -a 0 -x {3.0 1.0 11 ------- null}
+ -t 0.75014 -s 0 -d 1 -p cbr -e 210 -c 0 -i 26 -a 0 -x {3.0 1.0 11 ------- null}
- -t 0.75014 -s 0 -d 1 -p cbr -e 210 -c 0 -i 26 -a 0 -x {3.0 1.0 11 ------- null}
h -t 0.75014 -s 0 -d 1 -p cbr -e 210 -c 0 -i 26 -a 0 -x {3.0 1.0 -1 ------- null}
r -t 0.75042 -s 0 -d 1 -p cbr -e 210 -c 0 -i 12 -a 0 -x {3.0 1.0 7 ------- null}
+ -t 0.76 -s 4 -d 0 -p cbr -e 210 -c 0 -i 36 -a 0 -x {4.0 1.0 13 ------- null}
- -t 0.76 -s 4 -d 0 -p cbr -e 210 -c 0 -i 36 -a 0 -x {4.0 1.0 13 ------- null}
h -t 0.76 -s 4 -d 0 -p cbr -e 210 -c 0 -i 36 -a 0 -x {4.0 1.0 -1 ------- null}
r -t 0.76014 -s 2 -d 0 -p cbr -e 210 -c 0 -i 27 -a 0 -x {2.0 1.0 7 ------- null}
+ -t 0.76014 -s 0 -d 1 -p cbr -e 210 -c 0 -i 27 -a 0 -x {2.0 1.0 7 ------- null}
- -t 0.76014 -s 0 -d 1 -p cbr -e 210 -c 0 -i 27 -a 0 -x {2.0 1.0 7 ------- null}
h -t 0.76014 -s 0 -d 1 -p cbr -e 210 -c 0 -i 27 -a 0 -x {2.0 1.0 -1 ------- null}
r -t 0.76014 -s 4 -d 0 -p cbr -e 210 -c 0 -i 28 -a 0 -x {4.0 1.0 8 ------- null}
+ -t 0.76014 -s 0 -d 1 -p cbr -e 210 -c 0 -i 28 -a 0 -x {4.0 1.0 8 ------- null}
- -t 0.76042 -s 0 -d 1 -p cbr -e 210 -c 0 -i 28 -a 0 -x {4.0 1.0 8 ------- null}
h -t 0.76042 -s 0 -d 1 -p cbr -e 210 -c 0 -i 28 -a 0 -x {4.0 1.0 -1 ------- null}
+ -t 0.78 -s 4 -d 0 -p cbr -e 210 -c 0 -i 37 -a 0 -x {4.0 1.0 14 ------- null}
- -t 0.78 -s 4 -d 0 -p cbr -e 210 -c 0 -i 37 -a 0 -x {4.0 1.0 14 ------- null}
h -t 0.78 -s 4 -d 0 -p cbr -e 210 -c 0 -i 37 -a 0 -x {4.0 1.0 -1 ------- null}
r -t 0.78014 -s 4 -d 0 -p cbr -e 210 -c 0 -i 29 -a 0 -x {4.0 1.0 9 ------- null}
+ -t 0.78014 -s 0 -d 1 -p cbr -e 210 -c 0 -i 29 -a 0 -x {4.0 1.0 9 ------- null}
- -t 0.78014 -s 0 -d 1 -p cbr -e 210 -c 0 -i 29 -a 0 -x {4.0 1.0 9 ------- null}
h -t 0.78014 -s 0 -d 1 -p cbr -e 210 -c 0 -i 29 -a 0 -x {4.0 1.0 -1 ------- null}
+ -t 0.8 -s 3 -d 0 -p cbr -e 210 -c 0 -i 38 -a 0 -x {3.0 1.0 14 ------- null}
- -t 0.8 -s 3 -d 0 -p cbr -e 210 -c 0 -i 38 -a 0 -x {3.0 1.0 14 ------- null}
h -t 0.8 -s 3 -d 0 -p cbr -e 210 -c 0 -i 38 -a 0 -x {3.0 1.0 -1 ------- null}
+ -t 0.8 -s 4 -d 0 -p cbr -e 210 -c 0 -i 39 -a 0 -x {4.0 1.0 15 ------- null}
- -t 0.8 -s 4 -d 0 -p cbr -e 210 -c 0 -i 39 -a 0 -x {4.0 1.0 15 ------- null}
h -t 0.8 -s 4 -d 0 -p cbr -e 210 -c 0 -i 39 -a 0 -x {4.0 1.0 -1 ------- null}
r -t 0.80014 -s 3 -d 0 -p cbr -e 210 -c 0 -i 30 -a 0 -x {3.0 1.0 12 ------- null}
+ -t 0.80014 -s 0 -d 1 -p cbr -e 210 -c 0 -i 30 -a 0 -x {3.0 1.0 12 ------- null}
- -t 0.80014 -s 0 -d 1 -p cbr -e 210 -c 0 -i 30 -a 0 -x {3.0 1.0 12 ------- null}
h -t 0.80014 -s 0 -d 1 -p cbr -e 210 -c 0 -i 30 -a 0 -x {3.0 1.0 -1 ------- null}
r -t 0.80014 -s 4 -d 0 -p cbr -e 210 -c 0 -i 31 -a 0 -x {4.0 1.0 10 ------- null}
+ -t 0.80014 -s 0 -d 1 -p cbr -e 210 -c 0 -i 31 -a 0 -x {4.0 1.0 10 ------- null}
r -t 0.80042 -s 0 -d 1 -p cbr -e 210 -c 0 -i 13 -a 0 -x {3.0 1.0 8 ------- null}
- -t 0.80042 -s 0 -d 1 -p cbr -e 210 -c 0 -i 31 -a 0 -x {4.0 1.0 10 ------- null}
h -t 0.80042 -s 0 -d 1 -p cbr -e 210 -c 0 -i 31 -a 0 -x {4.0 1.0 -1 ------- null}
r -t 0.8007 -s 0 -d 1 -p cbr -e 210 -c 0 -i 14 -a 0 -x {4.0 1.0 0 ------- null}
r -t 0.80098 -s 0 -d 1 -p cbr -e 210 -c 0 -i 15 -a 0 -x {2.0 1.0 5 ------- null}
+ -t 0.82 -s 2 -d 0 -p cbr -e 210 -c 0 -i 40 -a 0 -x {2.0 1.0 9 ------- null}
- -t 0.82 -s 2 -d 0 -p cbr -e 210 -c 0 -i 40 -a 0 -x {2.0 1.0 9 ------- null}
h -t 0.82 -s 2 -d 0 -p cbr -e 210 -c 0 -i 40 -a 0 -x {2.0 1.0 -1 ------- null}
+ -t 0.82 -s 4 -d 0 -p cbr -e 210 -c 0 -i 41 -a 0 -x {4.0 1.0 16 ------- null}
- -t 0.82 -s 4 -d 0 -p cbr -e 210 -c 0 -i 41 -a 0 -x {4.0 1.0 16 ------- null}
h -t 0.82 -s 4 -d 0 -p cbr -e 210 -c 0 -i 41 -a 0 -x {4.0 1.0 -1 ------- null}
r -t 0.82014 -s 4 -d 0 -p cbr -e 210 -c 0 -i 32 -a 0 -x {4.0 1.0 11 ------- null}
+ -t 0.82014 -s 0 -d 1 -p cbr -e 210 -c 0 -i 32 -a 0 -x {4.0 1.0 11 ------- null}
- -t 0.82014 -s 0 -d 1 -p cbr -e 210 -c 0 -i 32 -a 0 -x {4.0 1.0 11 ------- null}
h -t 0.82014 -s 0 -d 1 -p cbr -e 210 -c 0 -i 32 -a 0 -x {4.0 1.0 -1 ------- null}
r -t 0.82042 -s 0 -d 1 -p cbr -e 210 -c 0 -i 16 -a 0 -x {4.0 1.0 1 ------- null}
+ -t 0.84 -s 4 -d 0 -p cbr -e 210 -c 0 -i 42 -a 0 -x {4.0 1.0 17 ------- null}
- -t 0.84 -s 4 -d 0 -p cbr -e 210 -c 0 -i 42 -a 0 -x {4.0 1.0 17 ------- null}
h -t 0.84 -s 4 -d 0 -p cbr -e 210 -c 0 -i 42 -a 0 -x {4.0 1.0 -1 ------- null}
r -t 0.84014 -s 2 -d 0 -p cbr -e 210 -c 0 -i 33 -a 0 -x {2.0 1.0 8 ------- null}
+ -t 0.84014 -s 0 -d 1 -p cbr -e 210 -c 0 -i 33 -a 0 -x {2.0 1.0 8 ------- null}
- -t 0.84014 -s 0 -d 1 -p cbr -e 210 -c 0 -i 33 -a 0 -x {2.0 1.0 8 ------- null}
h -t 0.84014 -s 0 -d 1 -p cbr -e 210 -c 0 -i 33 -a 0 -x {2.0 1.0 -1 ------- null}
r -t 0.84014 -s 4 -d 0 -p cbr -e 210 -c 0 -i 34 -a 0 -x {4.0 1.0 12 ------- null}
+ -t 0.84014 -s 0 -d 1 -p cbr -e 210 -c 0 -i 34 -a 0 -x {4.0 1.0 12 ------- null}
- -t 0.84042 -s 0 -d 1 -p cbr -e 210 -c 0 -i 34 -a 0 -x {4.0 1.0 12 ------- null}
h -t 0.84042 -s 0 -d 1 -p cbr -e 210 -c 0 -i 34 -a 0 -x {4.0 1.0 -1 ------- null}
r -t 0.84042 -s 0 -d 1 -p cbr -e 210 -c 0 -i 17 -a 0 -x {4.0 1.0 2 ------- null}
+ -t 0.85 -s 3 -d 0 -p cbr -e 210 -c 0 -i 43 -a 0 -x {3.0 1.0 15 ------- null}
- -t 0.85 -s 3 -d 0 -p cbr -e 210 -c 0 -i 43 -a 0 -x {3.0 1.0 15 ------- null}
h -t 0.85 -s 3 -d 0 -p cbr -e 210 -c 0 -i 43 -a 0 -x {3.0 1.0 -1 ------- null}
r -t 0.85014 -s 3 -d 0 -p cbr -e 210 -c 0 -i 35 -a 0 -x {3.0 1.0 13 ------- null}
+ -t 0.85014 -s 0 -d 1 -p cbr -e 210 -c 0 -i 35 -a 0 -x {3.0 1.0 13 ------- null}
- -t 0.85014 -s 0 -d 1 -p cbr -e 210 -c 0 -i 35 -a 0 -x {3.0 1.0 13 ------- null}
h -t 0.85014 -s 0 -d 1 -p cbr -e 210 -c 0 -i 35 -a 0 -x {3.0 1.0 -1 ------- null}
r -t 0.85042 -s 0 -d 1 -p cbr -e 210 -c 0 -i 18 -a 0 -x {3.0 1.0 9 ------- null}
+ -t 0.86 -s 4 -d 0 -p cbr -e 210 -c 0 -i 44 -a 0 -x {4.0 1.0 18 ------- null}
- -t 0.86 -s 4 -d 0 -p cbr -e 210 -c 0 -i 44 -a 0 -x {4.0 1.0 18 ------- null}
h -t 0.86 -s 4 -d 0 -p cbr -e 210 -c 0 -i 44 -a 0 -x {4.0 1.0 -1 ------- null}
r -t 0.86014 -s 4 -d 0 -p cbr -e 210 -c 0 -i 36 -a 0 -x {4.0 1.0 13 ------- null}
+ -t 0.86014 -s 0 -d 1 -p cbr -e 210 -c 0 -i 36 -a 0 -x {4.0 1.0 13 ------- null}
- -t 0.86014 -s 0 -d 1 -p cbr -e 210 -c 0 -i 36 -a 0 -x {4.0 1.0 13 ------- null}
h -t 0.86014 -s 0 -d 1 -p cbr -e 210 -c 0 -i 36 -a 0 -x {4.0 1.0 -1 ------- null}
r -t 0.86042 -s 0 -d 1 -p cbr -e 210 -c 0 -i 19 -a 0 -x {4.0 1.0 3 ------- null}
+ -t 0.88 -s 4 -d 0 -p cbr -e 210 -c 0 -i 45 -a 0 -x {4.0 1.0 19 ------- null}
- -t 0.88 -s 4 -d 0 -p cbr -e 210 -c 0 -i 45 -a 0 -x {4.0 1.0 19 ------- null}
h -t 0.88 -s 4 -d 0 -p cbr -e 210 -c 0 -i 45 -a 0 -x {4.0 1.0 -1 ------- null}
r -t 0.88014 -s 4 -d 0 -p cbr -e 210 -c 0 -i 37 -a 0 -x {4.0 1.0 14 ------- null}
+ -t 0.88014 -s 0 -d 1 -p cbr -e 210 -c 0 -i 37 -a 0 -x {4.0 1.0 14 ------- null}
- -t 0.88014 -s 0 -d 1 -p cbr -e 210 -c 0 -i 37 -a 0 -x {4.0 1.0 14 ------- null}
h -t 0.88014 -s 0 -d 1 -p cbr -e 210 -c 0 -i 37 -a 0 -x {4.0 1.0 -1 ------- null}
r -t 0.88042 -s 0 -d 1 -p cbr -e 210 -c 0 -i 20 -a 0 -x {2.0 1.0 6 ------- null}
r -t 0.8807 -s 0 -d 1 -p cbr -e 210 -c 0 -i 21 -a 0 -x {4.0 1.0 4 ------- null}
+ -t 0.9 -s 2 -d 0 -p cbr -e 210 -c 0 -i 46 -a 0 -x {2.0 1.0 10 ------- null}
- -t 0.9 -s 2 -d 0 -p cbr -e 210 -c 0 -i 46 -a 0 -x {2.0 1.0 10 ------- null}
h -t 0.9 -s 2 -d 0 -p cbr -e 210 -c 0 -i 46 -a 0 -x {2.0 1.0 -1 ------- null}
+ -t 0.9 -s 3 -d 0 -p cbr -e 210 -c 0 -i 47 -a 0 -x {3.0 1.0 16 ------- null}
- -t 0.9 -s 3 -d 0 -p cbr -e 210 -c 0 -i 47 -a 0 -x {3.0 1.0 16 ------- null}
h -t 0.9 -s 3 -d 0 -p cbr -e 210 -c 0 -i 47 -a 0 -x {3.0 1.0 -1 ------- null}
+ -t 0.9 -s 4 -d 0 -p cbr -e 210 -c 0 -i 48 -a 0 -x {4.0 1.0 20 ------- null}
- -t 0.9 -s 4 -d 0 -p cbr -e 210 -c 0 -i 48 -a 0 -x {4.0 1.0 20 ------- null}
h -t 0.9 -s 4 -d 0 -p cbr -e 210 -c 0 -i 48 -a 0 -x {4.0 1.0 -1 ------- null}
r -t 0.90014 -s 3 -d 0 -p cbr -e 210 -c 0 -i 38 -a 0 -x {3.0 1.0 14 ------- null}
+ -t 0.90014 -s 0 -d 1 -p cbr -e 210 -c 0 -i 38 -a 0 -x {3.0 1.0 14 ------- null}
- -t 0.90014 -s 0 -d 1 -p cbr -e 210 -c 0 -i 38 -a 0 -x {3.0 1.0 14 ------- null}
h -t 0.90014 -s 0 -d 1 -p cbr -e 210 -c 0 -i 38 -a 0 -x {3.0 1.0 -1 ------- null}
r -t 0.90014 -s 4 -d 0 -p cbr -e 210 -c 0 -i 39 -a 0 -x {4.0 1.0 15 ------- null}
+ -t 0.90014 -s 0 -d 1 -p cbr -e 210 -c 0 -i 39 -a 0 -x {4.0 1.0 15 ------- null}
r -t 0.90042 -s 0 -d 1 -p cbr -e 210 -c 0 -i 22 -a 0 -x {3.0 1.0 10 ------- null}
- -t 0.90042 -s 0 -d 1 -p cbr -e 210 -c 0 -i 39 -a 0 -x {4.0 1.0 15 ------- null}
h -t 0.90042 -s 0 -d 1 -p cbr -e 210 -c 0 -i 39 -a 0 -x {4.0 1.0 -1 ------- null}
r -t 0.9007 -s 0 -d 1 -p cbr -e 210 -c 0 -i 23 -a 0 -x {4.0 1.0 5 ------- null}
+ -t 0.92 -s 4 -d 0 -p cbr -e 210 -c 0 -i 49 -a 0 -x {4.0 1.0 21 ------- null}
- -t 0.92 -s 4 -d 0 -p cbr -e 210 -c 0 -i 49 -a 0 -x {4.0 1.0 21 ------- null}
h -t 0.92 -s 4 -d 0 -p cbr -e 210 -c 0 -i 49 -a 0 -x {4.0 1.0 -1 ------- null}
r -t 0.92014 -s 2 -d 0 -p cbr -e 210 -c 0 -i 40 -a 0 -x {2.0 1.0 9 ------- null}
+ -t 0.92014 -s 0 -d 1 -p cbr -e 210 -c 0 -i 40 -a 0 -x {2.0 1.0 9 ------- null}
- -t 0.92014 -s 0 -d 1 -p cbr -e 210 -c 0 -i 40 -a 0 -x {2.0 1.0 9 ------- null}
h -t 0.92014 -s 0 -d 1 -p cbr -e 210 -c 0 -i 40 -a 0 -x {2.0 1.0 -1 ------- null}
r -t 0.92014 -s 4 -d 0 -p cbr -e 210 -c 0 -i 41 -a 0 -x {4.0 1.0 16 ------- null}
+ -t 0.92014 -s 0 -d 1 -p cbr -e 210 -c 0 -i 41 -a 0 -x {4.0 1.0 16 ------- null}
- -t 0.92042 -s 0 -d 1 -p cbr -e 210 -c 0 -i 41 -a 0 -x {4.0 1.0 16 ------- null}
h -t 0.92042 -s 0 -d 1 -p cbr -e 210 -c 0 -i 41 -a 0 -x {4.0 1.0 -1 ------- null}
r -t 0.92042 -s 0 -d 1 -p cbr -e 210 -c 0 -i 24 -a 0 -x {4.0 1.0 6 ------- null}
+ -t 0.94 -s 4 -d 0 -p cbr -e 210 -c 0 -i 50 -a 0 -x {4.0 1.0 22 ------- null}
- -t 0.94 -s 4 -d 0 -p cbr -e 210 -c 0 -i 50 -a 0 -x {4.0 1.0 22 ------- null}
h -t 0.94 -s 4 -d 0 -p cbr -e 210 -c 0 -i 50 -a 0 -x {4.0 1.0 -1 ------- null}
r -t 0.94014 -s 4 -d 0 -p cbr -e 210 -c 0 -i 42 -a 0 -x {4.0 1.0 17 ------- null}
+ -t 0.94014 -s 0 -d 1 -p cbr -e 210 -c 0 -i 42 -a 0 -x {4.0 1.0 17 ------- null}
- -t 0.94014 -s 0 -d 1 -p cbr -e 210 -c 0 -i 42 -a 0 -x {4.0 1.0 17 ------- null}
h -t 0.94014 -s 0 -d 1 -p cbr -e 210 -c 0 -i 42 -a 0 -x {4.0 1.0 -1 ------- null}
r -t 0.94042 -s 0 -d 1 -p cbr -e 210 -c 0 -i 25 -a 0 -x {4.0 1.0 7 ------- null}
+ -t 0.95 -s 3 -d 0 -p cbr -e 210 -c 0 -i 51 -a 0 -x {3.0 1.0 17 ------- null}
- -t 0.95 -s 3 -d 0 -p cbr -e 210 -c 0 -i 51 -a 0 -x {3.0 1.0 17 ------- null}
h -t 0.95 -s 3 -d 0 -p cbr -e 210 -c 0 -i 51 -a 0 -x {3.0 1.0 -1 ------- null}
r -t 0.95014 -s 3 -d 0 -p cbr -e 210 -c 0 -i 43 -a 0 -x {3.0 1.0 15 ------- null}
+ -t 0.95014 -s 0 -d 1 -p cbr -e 210 -c 0 -i 43 -a 0 -x {3.0 1.0 15 ------- null}
- -t 0.95014 -s 0 -d 1 -p cbr -e 210 -c 0 -i 43 -a 0 -x {3.0 1.0 15 ------- null}
h -t 0.95014 -s 0 -d 1 -p cbr -e 210 -c 0 -i 43 -a 0 -x {3.0 1.0 -1 ------- null}
r -t 0.95042 -s 0 -d 1 -p cbr -e 210 -c 0 -i 26 -a 0 -x {3.0 1.0 11 ------- null}
+ -t 0.96 -s 4 -d 0 -p cbr -e 210 -c 0 -i 52 -a 0 -x {4.0 1.0 23 ------- null}
- -t 0.96 -s 4 -d 0 -p cbr -e 210 -c 0 -i 52 -a 0 -x {4.0 1.0 23 ------- null}
h -t 0.96 -s 4 -d 0 -p cbr -e 210 -c 0 -i 52 -a 0 -x {4.0 1.0 -1 ------- null}
r -t 0.96014 -s 4 -d 0 -p cbr -e 210 -c 0 -i 44 -a 0 -x {4.0 1.0 18 ------- null}
+ -t 0.96014 -s 0 -d 1 -p cbr -e 210 -c 0 -i 44 -a 0 -x {4.0 1.0 18 ------- null}
- -t 0.96014 -s 0 -d 1 -p cbr -e 210 -c 0 -i 44 -a 0 -x {4.0 1.0 18 ------- null}
h -t 0.96014 -s 0 -d 1 -p cbr -e 210 -c 0 -i 44 -a 0 -x {4.0 1.0 -1 ------- null}
r -t 0.96042 -s 0 -d 1 -p cbr -e 210 -c 0 -i 27 -a 0 -x {2.0 1.0 7 ------- null}
r -t 0.9607 -s 0 -d 1 -p cbr -e 210 -c 0 -i 28 -a 0 -x {4.0 1.0 8 ------- null}