+ 0.1 2 0 cbr 210 ------- 0 2.0 1.0 0 0
- 0.1 2 0 cbr 210 ------- 0 2.0 1.0 0 0
+ 0.1 3 0 cbr 210 ------- 0 3.0 1.0 0 1
- 0.1 3 0 cbr 210 ------- 0 3.0 1.0 0 1
+ 0.15 3 0 cbr 210 ------- 0 3.0 1.0 1 2
- 0.15 3 0 cbr 210 ------- 0 3.0 1.0 1 2
+ 0.18 2 0 cbr 210 ------- 0 2.0 1.0 1 3
- 0.18 2 0 cbr 210 ------- 0 2.0 1.0 1 3
+ 0.2 3 0 cbr 210 ------- 0 3.0 1.0 2 4
- 0.2 3 0 cbr 210 ------- 0 3.0 1.0 2 4
r 0.20014 2 0 cbr 210 ------- 0 2.0 1.0 0 0
+ 0.20014 0 1 cbr 210 ------- 0 2.0 1.0 0 0
- 0.20014 0 1 cbr 210 ------- 0 2.0 1.0 0 0
r 0.20014 3 0 cbr 210 ------- 0 3.0 1.0 0 1
+ 0.20014 0 1 cbr 210 ------- 0 3.0 1.0 0 1
- 0.20042 0 1 cbr 210 ------- 0 3.0 1.0 0 1
+ 0.25 3 0 cbr 210 ------- 0 3.0 1.0 3 5
- 0.25 3 0 cbr 210 ------- 0 3.0 1.0 3 5
r 0.25014 3 0 cbr 210 ------- 0 3.0 1.0 1 2
+ 0.25014 0 1 cbr 210 ------- 0 3.0 1.0 1 2
- 0.25014 0 1 cbr 210 ------- 0 3.0 1.0 1 2
+ 0.26 2 0 cbr 210 ------- 0 2.0 1.0 2 6
- 0.26 2 0 cbr 210 ------- 0 2.0 1.0 2 6
r 0.28014 2 0 cbr 210 ------- 0 2.0 1.0 1 3
+ 0.28014 0 1 cbr 210 ------- 0 2.0 1.0 1 3
- 0.28014 0 1 cbr 210 ------- 0 2.0 1.0 1 3
+ 0.3 3 0 cbr 210 ------- 0 3.0 1.0 4 7
- 0.3 3 0 cbr 210 ------- 0 3.0 1.0 4 7
r 0.30014 3 0 cbr 210 ------- 0 3.0 1.0 2 4
+ 0.30014 0 1 cbr 210 ------- 0 3.0 1.0 2 4
- 0.30014 0 1 cbr 210 ------- 0 3.0 1.0 2 4
+ 0.34 2 0 cbr 210 ------- 0 2.0 1.0 3 8
- 0.34 2 0 cbr 210 ------- 0 2.0 1.0 3 8
+ 0.35 3 0 cbr 210 ------- 0 3.0 1.0 5 9
- 0.35 3 0 cbr 210 ------- 0 3.0 1.0 5 9
r 0.35014 3 0 cbr 210 ------- 0 3.0 1.0 3 5
+ 0.35014 0 1 cbr 210 ------- 0 3.0 1.0 3 5
- 0.35014 0 1 cbr 210 ------- 0 3.0 1.0 3 5
r 0.36014 2 0 cbr 210 ------- 0 2.0 1.0 2 6
+ 0.36014 0 1 cbr 210 ------- 0 2.0 1.0 2 6
- 0.36014 0 1 cbr 210 ------- 0 2.0 1.0 2 6
+ 0.4 3 0 cbr 210 ------- 0 3.0 1.0 6 10
- 0.4 3 0 cbr 210 ------- 0 3.0 1.0 6 10
r 0.40014 3 0 cbr 210 ------- 0 3.0 1.0 4 7
+ 0.40014 0 1 cbr 210 ------- 0 3.0 1.0 4 7
- 0.40014 0 1 cbr 210 ------- 0 3.0 1.0 4 7
r 0.40042 0 1 cbr 210 ------- 0 2.0 1.0 0 0
r 0.4007 0 1 cbr 210 ------- 0 3.0 1.0 0 1
+ 0.42 2 0 cbr 210 ------- 0 2.0 1.0 4 11
- 0.42 2 0 cbr 210 ------- 0 2.0 1.0 4 11
r 0.44014 2 0 cbr 210 ------- 0 2.0 1.0 3 8
+ 0.44014 0 1 cbr 210 ------- 0 2.0 1.0 3 8
- 0.44014 0 1 cbr 210 ------- 0 2.0 1.0 3 8
+ 0.45 3 0 cbr 210 ------- 0 3.0 1.0 7 12
- 0.45 3 0 cbr 210 ------- 0 3.0 1.0 7 12
r 0.45014 3 0 cbr 210 ------- 0 3.0 1.0 5 9
+ 0.45014 0 1 cbr 210 ------- 0 3.0 1.0 5 9
- 0.45014 0 1 cbr 210 ------- 0 3.0 1.0 5 9
r 0.45042 0 1 cbr 210 ------- 0 3.0 1.0 1 2
r 0.48042 0 1 cbr 210 ------- 0 2.0 1.0 1 3
+ 0.5 3 0 cbr 210 ------- 0 3.0 1.0 8 13
- 0.5 3 0 cbr 210 ------- 0 3.0 1.0 8 13
+ 0.5 4 0 cbr 210 ------- 0 4.0 1.0 0 14
- 0.5 4 0 cbr 210 ------- 0 4.0 1.0 0 14
+ 0.5 2 0 cbr 210 ------- 0 2.0 1.0 5 15
- 0.5 2 0 cbr 210 ------- 0 2.0 1.0 5 15
r 0.50014 3 0 cbr 210 ------- 0 3.0 1.0 6 10
+ 0.50014 0 1 cbr 210 ------- 0 3.0 1.0 6 10
- 0.50014 0 1 cbr 210 ------- 0 3.0 1.0 6 10
r 0.50042 0 1 cbr 210 ------- 0 3.0 1.0 2 4
+ 0.52 4 0 cbr 210 ------- 0 4.0 1.0 1 16
- 0.52 4 0 cbr 210 ------- 0 4.0 1.0 1 16
r 0.52014 2 0 cbr 210 ------- 0 2.0 1.0 4 11
+ 0.52014 0 1 cbr 210 ------- 0 2.0 1.0 4 11
- 0.52014 0 1 cbr 210 ------- 0 2.0 1.0 4 11
+ 0.54 4 0 cbr 210 ------- 0 4.0 1.0 2 17
- 0.54 4 0 cbr 210 ------- 0 4.0 1.0 2 17
+ 0.55 3 0 cbr 210 ------- 0 3.0 1.0 9 18
- 0.55 3 0 cbr 210 ------- 0 3.0 1.0 9 18
r 0.55014 3 0 cbr 210 ------- 0 3.0 1.0 7 12
+ 0.55014 0 1 cbr 210 ------- 0 3.0 1.0 7 12
- 0.55014 0 1 cbr 210 ------- 0 3.0 1.0 7 12
r 0.55042 0 1 cbr 210 ------- 0 3.0 1.0 3 5
+ 0.56 4 0 cbr 210 ------- 0 4.0 1.0 3 19
- 0.56 4 0 cbr 210 ------- 0 4.0 1.0 3 19
r 0.56042 0 1 cbr 210 ------- 0 2.0 1.0 2 6
+ 0.58 2 0 cbr 210 ------- 0 2.0 1.0 6 20
- 0.58 2 0 cbr 210 ------- 0 2.0 1.0 6 20
+ 0.58 4 0 cbr 210 ------- 0 4.0 1.0 4 21
- 0.58 4 0 cbr 210 ------- 0 4.0 1.0 4 21
+ 0.6 3 0 cbr 210 ------- 0 3.0 1.0 10 22
- 0.6 3 0 cbr 210 ------- 0 3.0 1.0 10 22
+ 0.6 4 0 cbr 210 ------- 0 4.0 1.0 5 23
- 0.6 4 0 cbr 210 ------- 0 4.0 1.0 5 23
r 0.60014 3 0 cbr 210 ------- 0 3.0 1.0 8 13
+ 0.60014 0 1 cbr 210 ------- 0 3.0 1.0 8 13
- 0.60014 0 1 cbr 210 ------- 0 3.0 1.0 8 13
r 0.60014 4 0 cbr 210 ------- 0 4.0 1.0 0 14
+ 0.60014 0 1 cbr 210 ------- 0 4.0 1.0 0 14
r 0.60014 2 0 cbr 210 ------- 0 2.0 1.0 5 15
+ 0.60014 0 1 cbr 210 ------- 0 2.0 1.0 5 15
- 0.60042 0 1 cbr 210 ------- 0 4.0 1.0 0 14
r 0.60042 0 1 cbr 210 ------- 0 3.0 1.0 4 7
- 0.6007 0 1 cbr 210 ------- 0 2.0 1.0 5 15
+ 0.62 4 0 cbr 210 ------- 0 4.0 1.0 6 24
- 0.62 4 0 cbr 210 ------- 0 4.0 1.0 6 24
r 0.62014 4 0 cbr 210 ------- 0 4.0 1.0 1 16
+ 0.62014 0 1 cbr 210 ------- 0 4.0 1.0 1 16
- 0.62014 0 1 cbr 210 ------- 0 4.0 1.0 1 16
+ 0.64 4 0 cbr 210 ------- 0 4.0 1.0 7 25
- 0.64 4 0 cbr 210 ------- 0 4.0 1.0 7 25
r 0.64014 4 0 cbr 210 ------- 0 4.0 1.0 2 17
+ 0.64014 0 1 cbr 210 ------- 0 4.0 1.0 2 17
- 0.64014 0 1 cbr 210 ------- 0 4.0 1.0 2 17
r 0.64042 0 1 cbr 210 ------- 0 2.0 1.0 3 8
+ 0.65 3 0 cbr 210 ------- 0 3.0 1.0 11 26
- 0.65 3 0 cbr 210 ------- 0 3.0 1.0 11 26
r 0.65014 3 0 cbr 210 ------- 0 3.0 1.0 9 18
+ 0.65014 0 1 cbr 210 ------- 0 3.0 1.0 9 18
- 0.65014 0 1 cbr 210 ------- 0 3.0 1.0 9 18
r 0.65042 0 1 cbr 210 ------- 0 3.0 1.0 5 9
+ 0.66 2 0 cbr 210 ------- 0 2.0 1.0 7 27
- 0.66 2 0 cbr 210 ------- 0 2.0 1.0 7 27
+ 0.66 4 0 cbr 210 ------- 0 4.0 1.0 8 28
- 0.66 4 0 cbr 210 ------- 0 4.0 1.0 8 28
r 0.66014 4 0 cbr 210 ------- 0 4.0 1.0 3 19
+ 0.66014 0 1 cbr 210 ------- 0 4.0 1.0 3 19
- 0.66014 0 1 cbr 210 ------- 0 4.0 1.0 3 19
+ 0.68 4 0 cbr 210 ------- 0 4.0 1.0 9 29
- 0.68 4 0 cbr 210 ------- 0 4.0 1.0 9 29
r 0.68014 2 0 cbr 210 ------- 0 2.0 1.0 6 20
+ 0.68014 0 1 cbr 210 ------- 0 2.0 1.0 6 20
- 0.68014 0 1 cbr 210 ------- 0 2.0 1.0 6 20
r 0.68014 4 0 cbr 210 ------- 0 4.0 1.0 4 21
+ 0.68014 0 1 cbr 210 ------- 0 4.0 1.0 4 21
- 0.68042 0 1 cbr 210 ------- 0 4.0 1.0 4 21
+ 0.7 3 0 cbr 210 ------- 0 3.0 1.0 12 30
- 0.7 3 0 cbr 210 ------- 0 3.0 1.0 12 30
+ 0.7 4 0 cbr 210 ------- 0 4.0 1.0 10 31
- 0.7 4 0 cbr 210 ------- 0 4.0 1.0 10 31
r 0.70014 3 0 cbr 210 ------- 0 3.0 1.0 10 22
+ 0.70014 0 1 cbr 210 ------- 0 3.0 1.0 10 22
- 0.70014 0 1 cbr 210 ------- 0 3.0 1.0 10 22
r 0.70014 4 0 cbr 210 ------- 0 4.0 1.0 5 23
+ 0.70014 0 1 cbr 210 ------- 0 4.0 1.0 5 23
- 0.70042 0 1 cbr 210 ------- 0 4.0 1.0 5 23
r 0.70042 0 1 cbr 210 ------- 0 3.0 1.0 6 10
+ 0.72 4 0 cbr 210 ------- 0 4.0 1.0 11 32
- 0.72 4 0 cbr 210 ------- 0 4.0 1.0 11 32
r 0.72014 4 0 cbr 210 ------- 0 4.0 1.0 6 24
+ 0.72014 0 1 cbr 210 ------- 0 4.0 1.0 6 24
- 0.72014 0 1 cbr 210 ------- 0 4.0 1.0 6 24
r 0.72042 0 1 cbr 210 ------- 0 2.0 1.0 4 11
+ 0.74 2 0 cbr 210 ------- 0 2.0 1.0 8 33
- 0.74 2 0 cbr 210 ------- 0 2.0 1.0 8 33
+ 0.74 4 0 cbr 210 ------- 0 4.0 1.0 12 34
- 0.74 4 0 cbr 210 ------- 0 4.0 1.0 12 34
r 0.74014 4 0 cbr 210 ------- 0 4.0 1.0 7 25
+ 0.74014 0 1 cbr 210 ------- 0 4.0 1.0 7 25
- 0.74014 0 1 cbr 210 ------- 0 4.0 1.0 7 25
+ 0.75 3 0 cbr 210 ------- 0 3.0 1.0 13 35
- 0.75 3 0 cbr 210 ------- 0 3.0 1.0 13 35
r 0.75014 3 0 cbr 210 ------- 0 3.0 1.0 11 26
+ 0.75014 0 1 cbr 210 ------- 0 3.0 1.0 11 26
- 0.75014 0 1 cbr 210 ------- 0 3.0 1.0 11 26
r 0.75042 0 1 cbr 210 ------- 0 3.0 1.0 7 12
+ 0.76 4 0 cbr 210 ------- 0 4.0 1.0 13 36
- 0.76 4 0 cbr 210 ------- 0 4.0 1.0 13 36
r 0.76014 2 0 cbr 210 ------- 0 2.0 1.0 7 27
+ 0.76014 0 1 cbr 210 ------- 0 2.0 1.0 7 27
- 0.76014 0 1 cbr 210 ------- 0 2.0 1.0 7 27
r 0.76014 4 0 cbr 210 ------- 0 4.0 1.0 8 28
+ 0.76014 0 1 cbr 210 ------- 0 4.0 1.0 8 28
- 0.76042 0 1 cbr 210 ------- 0 4.0 1.0 8 28
+ 0.78 4 0 cbr 210 ------- 0 4.0 1.0 14 37
- 0.78 4 0 cbr 210 ------- 0 4.0 1.0 14 37
r 0.78014 4 0 cbr 210 ------- 0 4.0 1.0 9 29
+ 0.78014 0 1 cbr 210 ------- 0 4.0 1.0 9 29
- 0.78014 0 1 cbr 210 ------- 0 4.0 1.0 9 29
+ 0.8 3 0 cbr 210 ------- 0 3.0 1.0 14 38
- 0.8 3 0 cbr 210 ------- 0 3.0 1.0 14 38
+ 0.8 4 0 cbr 210 ------- 0 4.0 1.0 15 39
- 0.8 4 0 cbr 210 ------- 0 4.0 1.0 15 39
r 0.80014 3 0 cbr 210 ------- 0 3.0 1.0 12 30
+ 0.80014 0 1 cbr 210 ------- 0 3.0 1.0 12 30
- 0.80014 0 1 cbr 210 ------- 0 3.0 1.0 12 30
r 0.80014 4 0 cbr 210 ------- 0 4.0 1.0 10 31
+ 0.80014 0 1 cbr 210 ------- 0 4.0 1.0 10 31
r 0.80042 0 1 cbr 210 ------- 0 3.0 1.0 8 13
- 0.80042 0 1 cbr 210 ------- 0 4.0 1.0 10 31
r 0.8007 0 1 cbr 210 ------- 0 4.0 1.0 0 14
r 0.80098 0 1 cbr 210 ------- 0 2.0 1.0 5 15
+ 0.82 2 0 cbr 210 ------- 0 2.0 1.0 9 40
- 0.82 2 0 cbr 210 ------- 0 2.0 1.0 9 40
+ 0.82 4 0 cbr 210 ------- 0 4.0 1.0 16 41
- 0.82 4 0 cbr 210 ------- 0 4.0 1.0 16 41
r 0.82014 4 0 cbr 210 ------- 0 4.0 1.0 11 32
+ 0.82014 0 1 cbr 210 ------- 0 4.0 1.0 11 32
- 0.82014 0 1 cbr 210 ------- 0 4.0 1.0 11 32
r 0.82042 0 1 cbr 210 ------- 0 4.0 1.0 1 16
+ 0.84 4 0 cbr 210 ------- 0 4.0 1.0 17 42
- 0.84 4 0 cbr 210 ------- 0 4.0 1.0 17 42
r 0.84014 2 0 cbr 210 ------- 0 2.0 1.0 8 33
+ 0.84014 0 1 cbr 210 ------- 0 2.0 1.0 8 33
- 0.84014 0 1 cbr 210 ------- 0 2.0 1.0 8 33
r 0.84014 4 0 cbr 210 ------- 0 4.0 1.0 12 34
+ 0.84014 0 1 cbr 210 ------- 0 4.0 1.0 12 34
- 0.84042 0 1 cbr 210 ------- 0 4.0 1.0 12 34
r 0.84042 0 1 cbr 210 ------- 0 4.0 1.0 2 17
+ 0.85 3 0 cbr 210 ------- 0 3.0 1.0 15 43
- 0.85 3 0 cbr 210 ------- 0 3.0 1.0 15 43
r 0.85014 3 0 cbr 210 ------- 0 3.0 1.0 13 35
+ 0.85014 0 1 cbr 210 ------- 0 3.0 1.0 13 35
- 0.85014 0 1 cbr 210 ------- 0 3.0 1.0 13 35
r 0.85042 0 1 cbr 210 ------- 0 3.0 1.0 9 18
+ 0.86 4 0 cbr 210 ------- 0 4.0 1.0 18 44
- 0.86 4 0 cbr 210 ------- 0 4.0 1.0 18 44
r 0.86014 4 0 cbr 210 ------- 0 4.0 1.0 13 36
+ 0.86014 0 1 cbr 210 ------- 0 4.0 1.0 13 36
- 0.86014 0 1 cbr 210 ------- 0 4.0 1.0 13 36
r 0.86042 0 1 cbr 210 ------- 0 4.0 1.0 3 19
+ 0.88 4 0 cbr 210 ------- 0 4.0 1.0 19 45
- 0.88 4 0 cbr 210 ------- 0 4.0 1.0 19 45
r 0.88014 4 0 cbr 210 ------- 0 4.0 1.0 14 37
+ 0.88014 0 1 cbr 210 ------- 0 4.0 1.0 14 37
- 0.88014 0 1 cbr 210 ------- 0 4.0 1.0 14 37
r 0.88042 0 1 cbr 210 ------- 0 2.0 1.0 6 20
r 0.8807 0 1 cbr 210 ------- 0 4.0 1.0 4 21
+ 0.9 2 0 cbr 210 ------- 0 2.0 1.0 10 46
- 0.9 2 0 cbr 210 ------- 0 2.0 1.0 10 46
+ 0.9 3 0 cbr 210 ------- 0 3.0 1.0 16 47
- 0.9 3 0 cbr 210 ------- 0 3.0 1.0 16 47
+ 0.9 4 0 cbr 210 ------- 0 4.0 1.0 20 48
- 0.9 4 0 cbr 210 ------- 0 4.0 1.0 20 48
r 0.90014 3 0 cbr 210 ------- 0 3.0 1.0 14 38
+ 0.90014 0 1 cbr 210 ------- 0 3.0 1.0 14 38
- 0.90014 0 1 cbr 210 ------- 0 3.0 1.0 14 38
r 0.90014 4 0 cbr 210 ------- 0 4.0 1.0 15 39
+ 0.90014 0 1 cbr 210 ------- 0 4.0 1.0 15 39
r 0.90042 0 1 cbr 210 ------- 0 3.0 1.0 10 22
- 0.90042 0 1 cbr 210 ------- 0 4.0 1.0 15 39
r 0.9007 0 1 cbr 210 ------- 0 4.0 1.0 5 23
+ 0.92 4 0 cbr 210 ------- 0 4.0 1.0 21 49
- 0.92 4 0 cbr 210 ------- 0 4.0 1.0 21 49
r 0.92014 2 0 cbr 210 ------- 0 2.0 1.0 9 40
+ 0.92014 0 1 cbr 210 ------- 0 2.0 1.0 9 40
- 0.92014 0 1 cbr 210 ------- 0 2.0 1.0 9 40
r 0.92014 4 0 cbr 210 ------- 0 4.0 1.0 16 41
+ 0.92014 0 1 cbr 210 ------- 0 4.0 1.0 16 41
- 0.92042 0 1 cbr 210 ------- 0 4.0 1.0 16 41
r 0.92042 0 1 cbr 210 ------- 0 4.0 1.0 6 24
+ 0.94 4 0 cbr 210 ------- 0 4.0 1.0 22 50
- 0.94 4 0 cbr 210 ------- 0 4.0 1.0 22 50
r 0.94014 4 0 cbr 210 ------- 0 4.0 1.0 17 42
+ 0.94014 0 1 cbr 210 ------- 0 4.0 1.0 17 42
- 0.94014 0 1 cbr 210 ------- 0 4.0 1.0 17 42
r 0.94042 0 1 cbr 210 ------- 0 4.0 1.0 7 25
+ 0.95 3 0 cbr 210 ------- 0 3.0 1.0 17 51
- 0.95 3 0 cbr 210 ------- 0 3.0 1.0 17 51
r 0.95014 3 0 cbr 210 ------- 0 3.0 1.0 15 43
+ 0.95014 0 1 cbr 210 ------- 0 3.0 1.0 15 43
- 0.95014 0 1 cbr 210 ------- 0 3.0 1.0 15 43
r 0.95042 0 1 cbr 210 ------- 0 3.0 1.0 11 26
+ 0.96 4 0 cbr 210 ------- 0 4.0 1.0 23 52
- 0.96 4 0 cbr 210 ------- 0 4.0 1.0 23 52
r 0.96014 4 0 cbr 210 ------- 0 4.0 1.0 18 44
+ 0.96014 0 1 cbr 210 ------- 0 4.0 1.0 18 44
- 0.96014 0 1 cbr 210 ------- 0 4.0 1.0 18 44
r 0.96042 0 1 cbr 210 ------- 0 2.0 1.0 7 27
r 0.9607 0 1 cbr 210 ------- 0 4.0 1.0 8 28
+ 0.98 2 0 cbr 210 ------- 0 2.0 1.0 11 53
- 0.98 2 0 cbr 210 ------- 0 2.0 1.0 11 53
+ 0.98 4 0 cbr 210 ------- 0 4.0 1.0 24 54
- 0.98 4 0 cbr 210 ------- 0 4.0 1.0 24 54
r 0.98014 4 0 cbr 210 ------- 0 4.0 1.0 19 45
+ 0.98014 0 1 cbr 210 ------- 0 4.0 1.0 19 45
- 0.98014 0 1 cbr 210 ------- 0 4.0 1.0 19 45
r 0.98042 0 1 cbr 210 ------- 0 4.0 1.0 9 29
+ 1 3 0 cbr 210 ------- 0 3.0 1.0 18 55
- 1 3 0 cbr 210 ------- 0 3.0 1.0 18 55
+ 1 4 0 cbr 210 ------- 0 4.0 1.0 25 56
- 1 4 0 cbr 210 ------- 0 4.0 1.0 25 56
r 1.00014 2 0 cbr 210 ------- 0 2.0 1.0 10 46
+ 1.00014 0 1 cbr 210 ------- 0 2.0 1.0 10 46
- 1.00014 0 1 cbr 210 ------- 0 2.0 1.0 10 46
r 1.00014 3 0 cbr 210 ------- 0 3.0 1.0 16 47
+ 1.00014 0 1 cbr 210 ------- 0 3.0 1.0 16 47
r 1.00014 4 0 cbr 210 ------- 0 4.0 1.0 20 48
+ 1.00014 0 1 cbr 210 ------- 0 4.0 1.0 20 48
- 1.00042 0 1 cbr 210 ------- 0 3.0 1.0 16 47
r 1.00042 0 1 cbr 210 ------- 0 3.0 1.0 12 30
- 1.0007 0 1 cbr 210 ------- 0 4.0 1.0 20 48
r 1.0007 0 1 cbr 210 ------- 0 4.0 1.0 10 31
+ 1.02 4 0 cbr 210 ------- 0 4.0 1.0 26 57
- 1.02 4 0 cbr 210 ------- 0 4.0 1.0 26 57
r 1.02014 4 0 cbr 210 ------- 0 4.0 1.0 21 49
+ 1.02014 0 1 cbr 210 ------- 0 4.0 1.0 21 49
- 1.02014 0 1 cbr 210 ------- 0 4.0 1.0 21 49
r 1.02042 0 1 cbr 210 ------- 0 4.0 1.0 11 32
+ 1.04 4 0 cbr 210 ------- 0 4.0 1.0 27 58
- 1.04 4 0 cbr 210 ------- 0 4.0 1.0 27 58
r 1.04014 4 0 cbr 210 ------- 0 4.0 1.0 22 50
+ 1.04014 0 1 cbr 210 ------- 0 4.0 1.0 22 50
- 1.04014 0 1 cbr 210 ------- 0 4.0 1.0 22 50
r 1.04042 0 1 cbr 210 ------- 0 2.0 1.0 8 33
r 1.0407 0 1 cbr 210 ------- 0 4.0 1.0 12 34
+ 1.05 3 0 cbr 210 ------- 0 3.0 1.0 19 59
- 1.05 3 0 cbr 210 ------- 0 3.0 1.0 19 59
r 1.05014 3 0 cbr 210 ------- 0 3.0 1.0 17 51
+ 1.05014 0 1 cbr 210 ------- 0 3.0 1.0 17 51
- 1.05014 0 1 cbr 210 ------- 0 3.0 1.0 17 51
r 1.05042 0 1 cbr 210 ------- 0 3.0 1.0 13 35
+ 1.06 2 0 cbr 210 ------- 0 2.0 1.0 12 60
- 1.06 2 0 cbr 210 ------- 0 2.0 1.0 12 60
+ 1.06 4 0 cbr 210 ------- 0 4.0 1.0 28 61
- 1.06 4 0 cbr 210 ------- 0 4.0 1.0 28 61
r 1.06014 4 0 cbr 210 ------- 0 4.0 1.0 23 52
+ 1.06014 0 1 cbr 210 ------- 0 4.0 1.0 23 52
- 1.06014 0 1 cbr 210 ------- 0 4.0 1.0 23 52
r 1.06042 0 1 cbr 210 ------- 0 4.0 1.0 13 36
+ 1.08 4 0 cbr 210 ------- 0 4.0 1.0 29 62
- 1.08 4 0 cbr 210 ------- 0 4.0 1.0 29 62
r 1.08014 2 0 cbr 210 ------- 0 2.0 1.0 11 53
+ 1.08014 0 1 cbr 210 ------- 0 2.0 1.0 11 53
- 1.08014 0 1 cbr 210 ------- 0 2.0 1.0 11 53
r 1.08014 4 0 cbr 210 ------- 0 4.0 1.0 24 54
+ 1.08014 0 1 cbr 210 ------- 0 4.0 1.0 24 54
- 1.08042 0 1 cbr 210 ------- 0 4.0 1.0 24 54
r 1.08042 0 1 cbr 210 ------- 0 4.0 1.0 14 37
+ 1.1 3 0 cbr 210 ------- 0 3.0 1.0 20 63
- 1.1 3 0 cbr 210 ------- 0 3.0 1.0 20 63
+ 1.1 4 0 cbr 210 ------- 0 4.0 1.0 30 64
- 1.1 4 0 cbr 210 ------- 0 4.0 1.0 30 64
r 1.10014 3 0 cbr 210 ------- 0 3.0 1.0 18 55
+ 1.10014 0 1 cbr 210 ------- 0 3.0 1.0 18 55
- 1.10014 0 1 cbr 210 ------- 0 3.0 1.0 18 55
r 1.10014 4 0 cbr 210 ------- 0 4.0 1.0 25 56
+ 1.10014 0 1 cbr 210 ------- 0 4.0 1.0 25 56
r 1.10042 0 1 cbr 210 ------- 0 3.0 1.0 14 38
- 1.10042 0 1 cbr 210 ------- 0 4.0 1.0 25 56
r 1.1007 0 1 cbr 210 ------- 0 4.0 1.0 15 39
+ 1.12 4 0 cbr 210 ------- 0 4.0 1.0 31 65
- 1.12 4 0 cbr 210 ------- 0 4.0 1.0 31 65
r 1.12014 4 0 cbr 210 ------- 0 4.0 1.0 26 57
+ 1.12014 0 1 cbr 210 ------- 0 4.0 1.0 26 57
- 1.12014 0 1 cbr 210 ------- 0 4.0 1.0 26 57
r 1.12042 0 1 cbr 210 ------- 0 2.0 1.0 9 40
r 1.1207 0 1 cbr 210 ------- 0 4.0 1.0 16 41
+ 1.14 2 0 cbr 210 ------- 0 2.0 1.0 13 66
- 1.14 2 0 cbr 210 ------- 0 2.0 1.0 13 66
+ 1.14 4 0 cbr 210 ------- 0 4.0 1.0 32 67
- 1.14 4 0 cbr 210 ------- 0 4.0 1.0 32 67
r 1.14014 4 0 cbr 210 ------- 0 4.0 1.0 27 58
+ 1.14014 0 1 cbr 210 ------- 0 4.0 1.0 27 58
- 1.14014 0 1 cbr 210 ------- 0 4.0 1.0 27 58
r 1.14042 0 1 cbr 210 ------- 0 4.0 1.0 17 42
+ 1.15 3 0 cbr 210 ------- 0 3.0 1.0 21 68
- 1.15 3 0 cbr 210 ------- 0 3.0 1.0 21 68
r 1.15014 3 0 cbr 210 ------- 0 3.0 1.0 19 59
+ 1.15014 0 1 cbr 210 ------- 0 3.0 1.0 19 59
- 1.15014 0 1 cbr 210 ------- 0 3.0 1.0 19 59
r 1.15042 0 1 cbr 210 ------- 0 3.0 1.0 15 43
+ 1.16 4 0 cbr 210 ------- 0 4.0 1.0 33 69
- 1.16 4 0 cbr 210 ------- 0 4.0 1.0 33 69
r 1.16014 2 0 cbr 210 ------- 0 2.0 1.0 12 60
+ 1.16014 0 1 cbr 210 ------- 0 2.0 1.0 12 60
- 1.16014 0 1 cbr 210 ------- 0 2.0 1.0 12 60
r 1.16014 4 0 cbr 210 ------- 0 4.0 1.0 28 61
+ 1.16014 0 1 cbr 210 ------- 0 4.0 1.0 28 61
- 1.16042 0 1 cbr 210 ------- 0 4.0 1.0 28 61
r 1.16042 0 1 cbr 210 ------- 0 4.0 1.0 18 44
+ 1.18 4 0 cbr 210 ------- 0 4.0 1.0 34 70
- 1.18 4 0 cbr 210 ------- 0 4.0 1.0 34 70
r 1.18014 4 0 cbr 210 ------- 0 4.0 1.0 29 62
+ 1.18014 0 1 cbr 210 ------- 0 4.0 1.0 29 62
- 1.18014 0 1 cbr 210 ------- 0 4.0 1.0 29 62
r 1.18042 0 1 cbr 210 ------- 0 4.0 1.0 19 45
+ 1.2 3 0 cbr 210 ------- 0 3.0 1.0 22 71
- 1.2 3 0 cbr 210 ------- 0 3.0 1.0 22 71
+ 1.2 4 0 cbr 210 ------- 0 4.0 1.0 35 72
- 1.2 4 0 cbr 210 ------- 0 4.0 1.0 35 72
r 1.20014 3 0 cbr 210 ------- 0 3.0 1.0 20 63
+ 1.20014 0 1 cbr 210 ------- 0 3.0 1.0 20 63
- 1.20014 0 1 cbr 210 ------- 0 3.0 1.0 20 63
r 1.20014 4 0 cbr 210 ------- 0 4.0 1.0 30 64
+ 1.20014 0 1 cbr 210 ------- 0 4.0 1.0 30 64
r 1.20042 0 1 cbr 210 ------- 0 2.0 1.0 10 46
- 1.20042 0 1 cbr 210 ------- 0 4.0 1.0 30 64
r 1.2007 0 1 cbr 210 ------- 0 3.0 1.0 16 47
r 1.20098 0 1 cbr 210 ------- 0 4.0 1.0 20 48
+ 1.22 2 0 cbr 210 ------- 0 2.0 1.0 14 73
- 1.22 2 0 cbr 210 ------- 0 2.0 1.0 14 73
+ 1.22 4 0 cbr 210 ------- 0 4.0 1.0 36 74
- 1.22 4 0 cbr 210 ------- 0 4.0 1.0 36 74
r 1.22014 4 0 cbr 210 ------- 0 4.0 1.0 31 65
+ 1.22014 0 1 cbr 210 ------- 0 4.0 1.0 31 65
- 1.22014 0 1 cbr 210 ------- 0 4.0 1.0 31 65
r 1.22042 0 1 cbr 210 ------- 0 4.0 1.0 21 49
+ 1.24 4 0 cbr 210 ------- 0 4.0 1.0 37 75
- 1.24 4 0 cbr 210 ------- 0 4.0 1.0 37 75
r 1.24014 2 0 cbr 210 ------- 0 2.0 1.0 13 66
+ 1.24014 0 1 cbr 210 ------- 0 2.0 1.0 13 66
- 1.24014 0 1 cbr 210 ------- 0 2.0 1.0 13 66
r 1.24014 4 0 cbr 210 ------- 0 4.0 1.0 32 67
+ 1.24014 0 1 cbr 210 ------- 0 4.0 1.0 32 67
- 1.24042 0 1 cbr 210 ------- 0 4.0 1.0 32 67
r 1.24042 0 1 cbr 210 ------- 0 4.0 1.0 22 50
+ 1.25 3 0 cbr 210 ------- 0 3.0 1.0 23 76
- 1.25 3 0 cbr 210 ------- 0 3.0 1.0 23 76
r 1.25014 3 0 cbr 210 ------- 0 3.0 1.0 21 68
+ 1.25014 0 1 cbr 210 ------- 0 3.0 1.0 21 68
- 1.25014 0 1 cbr 210 ------- 0 3.0 1.0 21 68
r 1.25042 0 1 cbr 210 ------- 0 3.0 1.0 17 51
+ 1.26 4 0 cbr 210 ------- 0 4.0 1.0 38 77
- 1.26 4 0 cbr 210 ------- 0 4.0 1.0 38 77
r 1.26014 4 0 cbr 210 ------- 0 4.0 1.0 33 69
+ 1.26014 0 1 cbr 210 ------- 0 4.0 1.0 33 69
- 1.26014 0 1 cbr 210 ------- 0 4.0 1.0 33 69
r 1.26042 0 1 cbr 210 ------- 0 4.0 1.0 23 52
+ 1.28 4 0 cbr 210 ------- 0 4.0 1.0 39 78
- 1.28 4 0 cbr 210 ------- 0 4.0 1.0 39 78
r 1.28014 4 0 cbr 210 ------- 0 4.0 1.0 34 70
+ 1.28014 0 1 cbr 210 ------- 0 4.0 1.0 34 70
- 1.28014 0 1 cbr 210 ------- 0 4.0 1.0 34 70
r 1.28042 0 1 cbr 210 ------- 0 2.0 1.0 11 53
r 1.2807 0 1 cbr 210 ------- 0 4.0 1.0 24 54
+ 1.3 2 0 cbr 210 ------- 0 2.0 1.0 15 79
- 1.3 2 0 cbr 210 ------- 0 2.0 1.0 15 79
+ 1.3 3 0 cbr 210 ------- 0 3.0 1.0 24 80
- 1.3 3 0 cbr 210 ------- 0 3.0 1.0 24 80
+ 1.3 4 0 cbr 210 ------- 0 4.0 1.0 40 81
- 1.3 4 0 cbr 210 ------- 0 4.0 1.0 40 81
r 1.30014 3 0 cbr 210 ------- 0 3.0 1.0 22 71
+ 1.30014 0 1 cbr 210 ------- 0 3.0 1.0 22 71
- 1.30014 0 1 cbr 210 ------- 0 3.0 1.0 22 71
r 1.30014 4 0 cbr 210 ------- 0 4.0 1.0 35 72
+ 1.30014 0 1 cbr 210 ------- 0 4.0 1.0 35 72
r 1.30042 0 1 cbr 210 ------- 0 3.0 1.0 18 55
- 1.30042 0 1 cbr 210 ------- 0 4.0 1.0 35 72
r 1.3007 0 1 cbr 210 ------- 0 4.0 1.0 25 56
+ 1.32 4 0 cbr 210 ------- 0 4.0 1.0 41 82
- 1.32 4 0 cbr 210 ------- 0 4.0 1.0 41 82
r 1.32014 2 0 cbr 210 ------- 0 2.0 1.0 14 73
+ 1.32014 0 1 cbr 210 ------- 0 2.0 1.0 14 73
- 1.32014 0 1 cbr 210 ------- 0 2.0 1.0 14 73
r 1.32014 4 0 cbr 210 ------- 0 4.0 1.0 36 74
+ 1.32014 0 1 cbr 210 ------- 0 4.0 1.0 36 74
- 1.32042 0 1 cbr 210 ------- 0 4.0 1.0 36 74
r 1.32042 0 1 cbr 210 ------- 0 4.0 1.0 26 57
+ 1.34 4 0 cbr 210 ------- 0 4.0 1.0 42 83
- 1.34 4 0 cbr 210 ------- 0 4.0 1.0 42 83
r 1.34014 4 0 cbr 210 ------- 0 4.0 1.0 37 75
+ 1.34014 0 1 cbr 210 ------- 0 4.0 1.0 37 75
- 1.34014 0 1 cbr 210 ------- 0 4.0 1.0 37 75
r 1.34042 0 1 cbr 210 ------- 0 4.0 1.0 27 58
+ 1.35 3 0 cbr 210 ------- 0 3.0 1.0 25 84
- 1.35 3 0 cbr 210 ------- 0 3.0 1.0 25 84
r 1.35014 3 0 cbr 210 ------- 0 3.0 1.0 23 76
+ 1.35014 0 1 cbr 210 ------- 0 3.0 1.0 23 76
- 1.35014 0 1 cbr 210 ------- 0 3.0 1.0 23 76
r 1.35042 0 1 cbr 210 ------- 0 3.0 1.0 19 59
+ 1.36 4 0 cbr 210 ------- 0 4.0 1.0 43 85
- 1.36 4 0 cbr 210 ------- 0 4.0 1.0 43 85
r 1.36014 4 0 cbr 210 ------- 0 4.0 1.0 38 77
+ 1.36014 0 1 cbr 210 ------- 0 4.0 1.0 38 77
- 1.36014 0 1 cbr 210 ------- 0 4.0 1.0 38 77
r 1.36042 0 1 cbr 210 ------- 0 2.0 1.0 12 60
r 1.3607 0 1 cbr 210 ------- 0 4.0 1.0 28 61
+ 1.38 2 0 cbr 210 ------- 0 2.0 1.0 16 86
- 1.38 2 0 cbr 210 ------- 0 2.0 1.0 16 86
+ 1.38 4 0 cbr 210 ------- 0 4.0 1.0 44 87
- 1.38 4 0 cbr 210 ------- 0 4.0 1.0 44 87
r 1.38014 4 0 cbr 210 ------- 0 4.0 1.0 39 78
+ 1.38014 0 1 cbr 210 ------- 0 4.0 1.0 39 78
- 1.38014 0 1 cbr 210 ------- 0 4.0 1.0 39 78
r 1.38042 0 1 cbr 210 ------- 0 4.0 1.0 29 62
+ 1.4 3 0 cbr 210 ------- 0 3.0 1.0 26 88
- 1.4 3 0 cbr 210 ------- 0 3.0 1.0 26 88
+ 1.4 4 0 cbr 210 ------- 0 4.0 1.0 45 89
- 1.4 4 0 cbr 210 ------- 0 4.0 1.0 45 89
r 1.40014 2 0 cbr 210 ------- 0 2.0 1.0 15 79
+ 1.40014 0 1 cbr 210 ------- 0 2.0 1.0 15 79
- 1.40014 0 1 cbr 210 ------- 0 2.0 1.0 15 79
r 1.40014 3 0 cbr 210 ------- 0 3.0 1.0 24 80
+ 1.40014 0 1 cbr 210 ------- 0 3.0 1.0 24 80
r 1.40014 4 0 cbr 210 ------- 0 4.0 1.0 40 81
+ 1.40014 0 1 cbr 210 ------- 0 4.0 1.0 40 81
- 1.40042 0 1 cbr 210 ------- 0 3.0 1.0 24 80
r 1.40042 0 1 cbr 210 ------- 0 3.0 1.0 20 63
- 1.4007 0 1 cbr 210 ------- 0 4.0 1.0 40 81
r 1.4007 0 1 cbr 210 ------- 0 4.0 1.0 30 64
+ 1.42 4 0 cbr 210 ------- 0 4.0 1.0 46 90
- 1.42 4 0 cbr 210 ------- 0 4.0 1.0 46 90
r 1.42014 4 0 cbr 210 ------- 0 4.0 1.0 41 82
+ 1.42014 0 1 cbr 210 ------- 0 4.0 1.0 41 82
- 1.42014 0 1 cbr 210 ------- 0 4.0 1.0 41 82
r 1.42042 0 1 cbr 210 ------- 0 4.0 1.0 31 65
+ 1.44 4 0 cbr 210 ------- 0 4.0 1.0 47 91
- 1.44 4 0 cbr 210 ------- 0 4.0 1.0 47 91
r 1.44014 4 0 cbr 210 ------- 0 4.0 1.0 42 83
+ 1.44014 0 1 cbr 210 ------- 0 4.0 1.0 42 83
- 1.44014 0 1 cbr 210 ------- 0 4.0 1.0 42 83
r 1.44042 0 1 cbr 210 ------- 0 2.0 1.0 13 66
r 1.4407 0 1 cbr 210 ------- 0 4.0 1.0 32 67
+ 1.45 3 0 cbr 210 ------- 0 3.0 1.0 27 92
- 1.45 3 0 cbr 210 ------- 0 3.0 1.0 27 92
r 1.45014 3 0 cbr 210 ------- 0 3.0 1.0 25 84
+ 1.45014 0 1 cbr 210 ------- 0 3.0 1.0 25 84
- 1.45014 0 1 cbr 210 ------- 0 3.0 1.0 25 84
r 1.45042 0 1 cbr 210 ------- 0 3.0 1.0 21 68
+ 1.46 2 0 cbr 210 ------- 0 2.0 1.0 17 93
- 1.46 2 0 cbr 210 ------- 0 2.0 1.0 17 93
+ 1.46 4 0 cbr 210 ------- 0 4.0 1.0 48 94
- 1.46 4 0 cbr 210 ------- 0 4.0 1.0 48 94
r 1.46014 4 0 cbr 210 ------- 0 4.0 1.0 43 85
+ 1.46014 0 1 cbr 210 ------- 0 4.0 1.0 43 85
- 1.46014 0 1 cbr 210 ------- 0 4.0 1.0 43 85
r 1.46042 0 1 cbr 210 ------- 0 4.0 1.0 33 69
+ 1.48 4 0 cbr 210 ------- 0 4.0 1.0 49 95
- 1.48 4 0 cbr 210 ------- 0 4.0 1.0 49 95
r 1.48014 2 0 cbr 210 ------- 0 2.0 1.0 16 86
+ 1.48014 0 1 cbr 210 ------- 0 2.0 1.0 16 86
- 1.48014 0 1 cbr 210 ------- 0 2.0 1.0 16 86
r 1.48014 4 0 cbr 210 ------- 0 4.0 1.0 44 87
+ 1.48014 0 1 cbr 210 ------- 0 4.0 1.0 44 87
- 1.48042 0 1 cbr 210 ------- 0 4.0 1.0 44 87
r 1.48042 0 1 cbr 210 ------- 0 4.0 1.0 34 70
+ 1.5 3 0 cbr 210 ------- 0 3.0 1.0 28 96
- 1.5 3 0 cbr 210 ------- 0 3.0 1.0 28 96
+ 1.5 4 0 cbr 210 ------- 0 4.0 1.0 50 97
- 1.5 4 0 cbr 210 ------- 0 4.0 1.0 50 97
r 1.50014 3 0 cbr 210 ------- 0 3.0 1.0 26 88
+ 1.50014 0 1 cbr 210 ------- 0 3.0 1.0 26 88
- 1.50014 0 1 cbr 210 ------- 0 3.0 1.0 26 88
r 1.50014 4 0 cbr 210 ------- 0 4.0 1.0 45 89
+ 1.50014 0 1 cbr 210 ------- 0 4.0 1.0 45 89
r 1.50042 0 1 cbr 210 ------- 0 3.0 1.0 22 71
- 1.50042 0 1 cbr 210 ------- 0 4.0 1.0 45 89
r 1.5007 0 1 cbr 210 ------- 0 4.0 1.0 35 72
+ 1.52 4 0 cbr 210 ------- 0 4.0 1.0 51 98
- 1.52 4 0 cbr 210 ------- 0 4.0 1.0 51 98
r 1.52014 4 0 cbr 210 ------- 0 4.0 1.0 46 90
+ 1.52014 0 1 cbr 210 ------- 0 4.0 1.0 46 90
- 1.52014 0 1 cbr 210 ------- 0 4.0 1.0 46 90
r 1.52042 0 1 cbr 210 ------- 0 2.0 1.0 14 73
r 1.5207 0 1 cbr 210 ------- 0 4.0 1.0 36 74
+ 1.54 4 0 cbr 210 ------- 0 4.0 1.0 52 99
- 1.54 4 0 cbr 210 ------- 0 4.0 1.0 52 99
r 1.54014 4 0 cbr 210 ------- 0 4.0 1.0 47 91
+ 1.54014 0 1 cbr 210 ------- 0 4.0 1.0 47 91
- 1.54014 0 1 cbr 210 ------- 0 4.0 1.0 47 91
r 1.54042 0 1 cbr 210 ------- 0 4.0 1.0 37 75
+ 1.55 3 0 cbr 210 ------- 0 3.0 1.0 29 100
- 1.55 3 0 cbr 210 ------- 0 3.0 1.0 29 100
r 1.55014 3 0 cbr 210 ------- 0 3.0 1.0 27 92
+ 1.55014 0 1 cbr 210 ------- 0 3.0 1.0 27 92
- 1.55014 0 1 cbr 210 ------- 0 3.0 1.0 27 92
r 1.55042 0 1 cbr 210 ------- 0 3.0 1.0 23 76
+ 1.56 4 0 cbr 210 ------- 0 4.0 1.0 53 101
- 1.56 4 0 cbr 210 ------- 0 4.0 1.0 53 101
r 1.56014 2 0 cbr 210 ------- 0 2.0 1.0 17 93
+ 1.56014 0 1 cbr 210 ------- 0 2.0 1.0 17 93
- 1.56014 0 1 cbr 210 ------- 0 2.0 1.0 17 93
r 1.56014 4 0 cbr 210 ------- 0 4.0 1.0 48 94
+ 1.56014 0 1 cbr 210 ------- 0 4.0 1.0 48 94
- 1.56042 0 1 cbr 210 ------- 0 4.0 1.0 48 94
r 1.56042 0 1 cbr 210 ------- 0 4.0 1.0 38 77
+ 1.58 4 0 cbr 210 ------- 0 4.0 1.0 54 102
- 1.58 4 0 cbr 210 ------- 0 4.0 1.0 54 102
r 1.58014 4 0 cbr 210 ------- 0 4.0 1.0 49 95
+ 1.58014 0 1 cbr 210 ------- 0 4.0 1.0 49 95
- 1.58014 0 1 cbr 210 ------- 0 4.0 1.0 49 95
r 1.58042 0 1 cbr 210 ------- 0 4.0 1.0 39 78
+ 1.6 3 0 cbr 210 ------- 0 3.0 1.0 30 103
- 1.6 3 0 cbr 210 ------- 0 3.0 1.0 30 103
+ 1.6 4 0 cbr 210 ------- 0 4.0 1.0 55 104
- 1.6 4 0 cbr 210 ------- 0 4.0 1.0 55 104
r 1.60014 3 0 cbr 210 ------- 0 3.0 1.0 28 96
+ 1.60014 0 1 cbr 210 ------- 0 3.0 1.0 28 96
- 1.60014 0 1 cbr 210 ------- 0 3.0 1.0 28 96
r 1.60014 4 0 cbr 210 ------- 0 4.0 1.0 50 97
+ 1.60014 0 1 cbr 210 ------- 0 4.0 1.0 50 97
r 1.60042 0 1 cbr 210 ------- 0 2.0 1.0 15 79
- 1.60042 0 1 cbr 210 ------- 0 4.0 1.0 50 97
r 1.6007 0 1 cbr 210 ------- 0 3.0 1.0 24 80
r 1.60098 0 1 cbr 210 ------- 0 4.0 1.0 40 81
+ 1.62 4 0 cbr 210 ------- 0 4.0 1.0 56 105
- 1.62 4 0 cbr 210 ------- 0 4.0 1.0 56 105
r 1.62014 4 0 cbr 210 ------- 0 4.0 1.0 51 98
+ 1.62014 0 1 cbr 210 ------- 0 4.0 1.0 51 98
- 1.62014 0 1 cbr 210 ------- 0 4.0 1.0 51 98
r 1.62042 0 1 cbr 210 ------- 0 4.0 1.0 41 82
+ 1.64 4 0 cbr 210 ------- 0 4.0 1.0 57 106
- 1.64 4 0 cbr 210 ------- 0 4.0 1.0 57 106
r 1.64014 4 0 cbr 210 ------- 0 4.0 1.0 52 99
+ 1.64014 0 1 cbr 210 ------- 0 4.0 1.0 52 99
- 1.64014 0 1 cbr 210 ------- 0 4.0 1.0 52 99
r 1.64042 0 1 cbr 210 ------- 0 4.0 1.0 42 83
+ 1.65 3 0 cbr 210 ------- 0 3.0 1.0 31 107
- 1.65 3 0 cbr 210 ------- 0 3.0 1.0 31 107
r 1.65014 3 0 cbr 210 ------- 0 3.0 1.0 29 100
+ 1.65014 0 1 cbr 210 ------- 0 3.0 1.0 29 100
- 1.65014 0 1 cbr 210 ------- 0 3.0 1.0 29 100
r 1.65042 0 1 cbr 210 ------- 0 3.0 1.0 25 84
+ 1.66 4 0 cbr 210 ------- 0 4.0 1.0 58 108
- 1.66 4 0 cbr 210 ------- 0 4.0 1.0 58 108
r 1.66014 4 0 cbr 210 ------- 0 4.0 1.0 53 101
+ 1.66014 0 1 cbr 210 ------- 0 4.0 1.0 53 101
- 1.66014 0 1 cbr 210 ------- 0 4.0 1.0 53 101
r 1.66042 0 1 cbr 210 ------- 0 4.0 1.0 43 85
+ 1.68 4 0 cbr 210 ------- 0 4.0 1.0 59 109
- 1.68 4 0 cbr 210 ------- 0 4.0 1.0 59 109
r 1.68014 4 0 cbr 210 ------- 0 4.0 1.0 54 102
+ 1.68014 0 1 cbr 210 ------- 0 4.0 1.0 54 102
- 1.68014 0 1 cbr 210 ------- 0 4.0 1.0 54 102
r 1.68042 0 1 cbr 210 ------- 0 2.0 1.0 16 86
r 1.6807 0 1 cbr 210 ------- 0 4.0 1.0 44 87
+ 1.7 3 0 cbr 210 ------- 0 3.0 1.0 32 110
- 1.7 3 0 cbr 210 ------- 0 3.0 1.0 32 110
+ 1.7 4 0 cbr 210 ------- 0 4.0 1.0 60 111
- 1.7 4 0 cbr 210 ------- 0 4.0 1.0 60 111
r 1.70014 3 0 cbr 210 ------- 0 3.0 1.0 30 103
+ 1.70014 0 1 cbr 210 ------- 0 3.0 1.0 30 103
- 1.70014 0 1 cbr 210 ------- 0 3.0 1.0 30 103
r 1.70014 4 0 cbr 210 ------- 0 4.0 1.0 55 104
+ 1.70014 0 1 cbr 210 ------- 0 4.0 1.0 55 104
r 1.70042 0 1 cbr 210 ------- 0 3.0 1.0 26 88
- 1.70042 0 1 cbr 210 ------- 0 4.0 1.0 55 104
r 1.7007 0 1 cbr 210 ------- 0 4.0 1.0 45 89
+ 1.72 4 0 cbr 210 ------- 0 4.0 1.0 61 112
- 1.72 4 0 cbr 210 ------- 0 4.0 1.0 61 112
r 1.72014 4 0 cbr 210 ------- 0 4.0 1.0 56 105
+ 1.72014 0 1 cbr 210 ------- 0 4.0 1.0 56 105
- 1.72014 0 1 cbr 210 ------- 0 4.0 1.0 56 105
r 1.72042 0 1 cbr 210 ------- 0 4.0 1.0 46 90
+ 1.74 4 0 cbr 210 ------- 0 4.0 1.0 62 113
- 1.74 4 0 cbr 210 ------- 0 4.0 1.0 62 113
r 1.74014 4 0 cbr 210 ------- 0 4.0 1.0 57 106
+ 1.74014 0 1 cbr 210 ------- 0 4.0 1.0 57 106
- 1.74014 0 1 cbr 210 ------- 0 4.0 1.0 57 106
r 1.74042 0 1 cbr 210 ------- 0 4.0 1.0 47 91
+ 1.75 3 0 cbr 210 ------- 0 3.0 1.0 33 114
- 1.75 3 0 cbr 210 ------- 0 3.0 1.0 33 114
r 1.75014 3 0 cbr 210 ------- 0 3.0 1.0 31 107
+ 1.75014 0 1 cbr 210 ------- 0 3.0 1.0 31 107
- 1.75014 0 1 cbr 210 ------- 0 3.0 1.0 31 107
r 1.75042 0 1 cbr 210 ------- 0 3.0 1.0 27 92
+ 1.76 4 0 cbr 210 ------- 0 4.0 1.0 63 115
- 1.76 4 0 cbr 210 ------- 0 4.0 1.0 63 115
r 1.76014 4 0 cbr 210 ------- 0 4.0 1.0 58 108
+ 1.76014 0 1 cbr 210 ------- 0 4.0 1.0 58 108
- 1.76014 0 1 cbr 210 ------- 0 4.0 1.0 58 108
r 1.76042 0 1 cbr 210 ------- 0 2.0 1.0 17 93
r 1.7607 0 1 cbr 210 ------- 0 4.0 1.0 48 94
+ 1.78 4 0 cbr 210 ------- 0 4.0 1.0 64 116
- 1.78 4 0 cbr 210 ------- 0 4.0 1.0 64 116
r 1.78014 4 0 cbr 210 ------- 0 4.0 1.0 59 109
+ 1.78014 0 1 cbr 210 ------- 0 4.0 1.0 59 109
- 1.78014 0 1 cbr 210 ------- 0 4.0 1.0 59 109
r 1.78042 0 1 cbr 210 ------- 0 4.0 1.0 49 95
+ 1.8 3 0 cbr 210 ------- 0 3.0 1.0 34 117
- 1.8 3 0 cbr 210 ------- 0 3.0 1.0 34 117
+ 1.8 4 0 cbr 210 ------- 0 4.0 1.0 65 118
- 1.8 4 0 cbr 210 ------- 0 4.0 1.0 65 118
r 1.80014 3 0 cbr 210 ------- 0 3.0 1.0 32 110
+ 1.80014 0 1 cbr 210 ------- 0 3.0 1.0 32 110
- 1.80014 0 1 cbr 210 ------- 0 3.0 1.0 32 110
r 1.80014 4 0 cbr 210 ------- 0 4.0 1.0 60 111
+ 1.80014 0 1 cbr 210 ------- 0 4.0 1.0 60 111
r 1.80042 0 1 cbr 210 ------- 0 3.0 1.0 28 96
- 1.80042 0 1 cbr 210 ------- 0 4.0 1.0 60 111
r 1.8007 0 1 cbr 210 ------- 0 4.0 1.0 50 97
+ 1.82 4 0 cbr 210 ------- 0 4.0 1.0 66 119